TC5B in water
33635
    1ASN      N    1   3.587   2.018   3.351
    1ASN     H1    2   3.660   2.026   3.276
    1ASN     H2    3   3.547   1.922   3.341
    1ASN     H3    4   3.515   2.089   3.325
    1ASN     CA    5   3.644   2.044   3.487
    1ASN     HA    6   3.571   2.006   3.557
    1ASN     CB    7   3.777   1.964   3.501
    1ASN    HB1    8   3.772   1.868   3.446
    1ASN    HB2    9   3.863   2.022   3.460
    1ASN     CG   10   3.803   1.935   3.648
    1ASN    OD1   11   3.836   2.025   3.724
    1ASN    ND2   12   3.784   1.809   3.690
    1ASN   HD21   13   3.804   1.787   3.786
    1ASN   HD22   14   3.758   1.735   3.628
    1ASN      C   15   3.658   2.195   3.515
    1ASN      O   16   3.637   2.278   3.427
    2LEU      N   17   3.687   2.234   3.640
    2LEU     HN   18   3.718   2.168   3.709
    2LEU     CA   19   3.680   2.371   3.688
    2LEU     HA   20   3.610   2.428   3.629
    2LEU     CB   21   3.633   2.372   3.836
    2LEU    HB1   22   3.676   2.282   3.887
    2LEU    HB2   23   3.674   2.461   3.889
    2LEU     CG   24   3.480   2.373   3.858
    2LEU     HG   25   3.444   2.476   3.831
    2LEU    CD1   26   3.400   2.272   3.775
    2LEU   HD11   27   3.292   2.283   3.797
    2LEU   HD12   28   3.417   2.286   3.667
    2LEU   HD13   29   3.429   2.168   3.803
    2LEU    CD2   30   3.450   2.349   4.006
    2LEU   HD21   31   3.345   2.378   4.030
    2LEU   HD22   32   3.463   2.242   4.032
    2LEU   HD23   33   3.519   2.408   4.069
    2LEU      C   34   3.816   2.439   3.676
    2LEU      O   35   3.912   2.406   3.745
    3TYR      N   36   3.825   2.538   3.584
    3TYR     HN   37   3.750   2.554   3.521
    3TYR     CA   38   3.944   2.619   3.566
    3TYR     HA   39   4.023   2.588   3.633
    3TYR     CB   40   3.992   2.613   3.418
    3TYR    HB1   41   3.911   2.643   3.349
    3TYR    HB2   42   4.079   2.682   3.403
    3TYR     CG   43   4.038   2.475   3.383
    3TYR    CD1   44   3.953   2.384   3.316
    3TYR    HD1   45   3.852   2.414   3.294
    3TYR    CE1   46   4.000   2.257   3.280
    3TYR    HE1   47   3.935   2.188   3.228
    3TYR     CZ   48   4.131   2.220   3.310
    3TYR     OH   49   4.178   2.092   3.273
    3TYR     HH   50   4.266   2.081   3.315
    3TYR    CD2   51   4.170   2.436   3.412
    3TYR    HD2   52   4.237   2.505   3.462
    3TYR    CE2   53   4.216   2.308   3.376
    3TYR    HE2   54   4.318   2.280   3.398
    3TYR      C   55   3.915   2.765   3.595
    3TYR      O   56   4.000   2.851   3.579
    4ILE      N   57   3.792   2.797   3.639
    4ILE     HN   58   3.729   2.725   3.666
    4ILE     CA   59   3.737   2.932   3.646
    4ILE     HA   60   3.751   2.977   3.549
    4ILE     CB   61   3.587   2.927   3.674
    4ILE     HB   62   3.551   3.032   3.691
    4ILE    CG2   63   3.518   2.872   3.548
    4ILE   HG21   64   3.408   2.876   3.559
    4ILE   HG22   65   3.545   2.933   3.459
    4ILE   HG23   66   3.547   2.767   3.528
    4ILE    CG1   67   3.551   2.843   3.799
    4ILE   HG11   68   3.561   2.735   3.775
    4ILE   HG12   69   3.622   2.865   3.882
    4ILE     CD   70   3.409   2.871   3.850
    4ILE    HD1   71   3.402   2.976   3.887
    4ILE    HD2   72   3.333   2.857   3.771
    4ILE    HD3   73   3.385   2.804   3.935
    4ILE      C   74   3.811   3.025   3.742
    4ILE      O   75   3.817   3.146   3.723
    5GLN      N   76   3.872   2.971   3.848
    5GLN     HN   77   3.856   2.874   3.869
    5GLN     CA   78   3.956   3.040   3.944
    5GLN     HA   79   3.911   3.136   3.966
    5GLN     CB   80   3.961   2.958   4.075
    5GLN    HB1   81   4.016   3.020   4.151
    5GLN    HB2   82   3.857   2.947   4.113
    5GLN     CG   83   4.028   2.818   4.071
    5GLN    HG1   84   4.132   2.827   4.031
    5GLN    HG2   85   4.036   2.781   4.176
    5GLN     CD   86   3.955   2.708   3.991
    5GLN    OE1   87   3.842   2.721   3.943
    5GLN    NE2   88   4.024   2.594   3.973
    5GLN   HE21   89   4.103   2.576   4.032
    5GLN   HE22   90   3.979   2.521   3.921
    5GLN      C   91   4.097   3.072   3.890
    5GLN      O   92   4.168   3.156   3.945
    6TRP      N   93   4.137   3.010   3.777
    6TRP     HN   94   4.077   2.944   3.733
    6TRP     CA   95   4.261   3.039   3.707
    6TRP     HA   96   4.326   3.098   3.770
    6TRP     CB   97   4.332   2.906   3.667
    6TRP    HB1   98   4.258   2.836   3.623
    6TRP    HB2   99   4.408   2.927   3.589
    6TRP     CG  100   4.408   2.839   3.781
    6TRP    CD1  101   4.512   2.892   3.852
    6TRP    HD1  102   4.548   2.993   3.843
    6TRP    NE1  103   4.564   2.798   3.937
    6TRP    HE1  104   4.652   2.807   3.982
    6TRP    CE2  105   4.495   2.681   3.922
    6TRP    CD2  106   4.394   2.703   3.823
    6TRP    CE3  107   4.310   2.600   3.783
    6TRP    HE3  108   4.235   2.615   3.707
    6TRP    CZ3  109   4.328   2.473   3.841
    6TRP    HZ3  110   4.266   2.391   3.809
    6TRP    CZ2  111   4.511   2.556   3.980
    6TRP    HZ2  112   4.588   2.538   4.054
    6TRP    CH2  113   4.427   2.452   3.938
    6TRP    HH2  114   4.442   2.353   3.980
    6TRP      C  115   4.235   3.123   3.582
    6TRP      O  116   4.326   3.149   3.502
    7LEU      N  117   4.111   3.171   3.565
    7LEU     HN  118   4.041   3.151   3.633
    7LEU     CA  119   4.071   3.265   3.462
    7LEU     HA  120   4.148   3.273   3.387
    7LEU     CB  121   3.938   3.222   3.395
    7LEU    HB1  122   3.859   3.215   3.473
    7LEU    HB2  123   3.907   3.301   3.324
    7LEU     CG  124   3.941   3.089   3.317
    7LEU     HG  125   3.963   3.006   3.388
    7LEU    CD1  126   3.804   3.065   3.253
    7LEU   HD11  127   3.803   2.970   3.196
    7LEU   HD12  128   3.725   3.059   3.332
    7LEU   HD13  129   3.779   3.148   3.184
    7LEU    CD2  130   4.049   3.087   3.208
    7LEU   HD21  131   4.048   2.990   3.154
    7LEU   HD22  132   4.030   3.168   3.135
    7LEU   HD23  133   4.150   3.100   3.251
    7LEU      C  134   4.057   3.404   3.525
    7LEU      O  135   4.060   3.417   3.648
    8LYS      N  136   4.048   3.513   3.445
    8LYS     HN  137   4.047   3.501   3.346
    8LYS     CA  138   4.059   3.647   3.502
    8LYS     HA  139   4.022   3.648   3.603
    8LYS     CB  140   4.208   3.692   3.501
    8LYS    HB1  141   4.215   3.796   3.541
    8LYS    HB2  142   4.265   3.626   3.570
    8LYS     CG  143   4.274   3.688   3.361
    8LYS    HG1  144   4.304   3.583   3.340
    8LYS    HG2  145   4.200   3.719   3.284
    8LYS     CD  146   4.396   3.782   3.351
    8LYS    HD1  147   4.362   3.886   3.369
    8LYS    HD2  148   4.467   3.756   3.432
    8LYS     CE  149   4.473   3.778   3.217
    8LYS    HE1  150   4.551   3.857   3.218
    8LYS    HE2  151   4.524   3.680   3.204
    8LYS     NZ  152   4.387   3.799   3.100
    8LYS    HZ1  153   4.304   3.859   3.119
    8LYS    HZ2  154   4.439   3.839   3.020
    8LYS    HZ3  155   4.343   3.710   3.067
    8LYS      C  156   3.984   3.759   3.429
    8LYS      O  157   3.978   3.872   3.478
    9ASP      N  158   3.929   3.732   3.310
    9ASP     HN  159   3.932   3.640   3.272
    9ASP     CA  160   3.865   3.832   3.228
    9ASP     HA  161   3.892   3.931   3.261
    9ASP     CB  162   3.906   3.813   3.080
    9ASP    HB1  163   3.885   3.709   3.047
    9ASP    HB2  164   3.849   3.883   3.015
    9ASP     CG  165   4.053   3.841   3.057
    9ASP    OD1  166   4.132   3.745   3.050
    9ASP    OD2  167   4.090   3.960   3.037
    9ASP      C  168   3.713   3.823   3.239
    9ASP      O  169   3.657   3.738   3.309
   10GLY      N  170   3.641   3.912   3.168
   10GLY     HN  171   3.687   3.981   3.113
   10GLY     CA  172   3.496   3.916   3.167
   10GLY    HA1  173   3.469   3.985   3.089
   10GLY    HA2  174   3.458   3.816   3.150
   10GLY      C  175   3.434   3.968   3.293
   10GLY      O  176   3.503   4.006   3.387
   11GLY      N  177   3.300   3.977   3.298
   11GLY     HN  178   3.245   3.945   3.220
   11GLY     CA  179   3.232   4.043   3.409
   11GLY    HA1  180   3.126   4.043   3.388
   11GLY    HA2  181   3.257   3.987   3.498
   11GLY      C  182   3.274   4.189   3.426
   11GLY      O  183   3.290   4.256   3.324
   12PRO      N  184   3.296   4.240   3.546
   12PRO     CD  185   3.252   4.175   3.670
   12PRO    HD1  186   3.320   4.090   3.691
   12PRO    HD2  187   3.147   4.139   3.662
   12PRO     CA  188   3.348   4.374   3.572
   12PRO     HA  189   3.272   4.443   3.537
   12PRO     CB  190   3.369   4.377   3.724
   12PRO    HB1  191   3.470   4.337   3.750
   12PRO    HB2  192   3.359   4.480   3.765
   12PRO     CG  193   3.264   4.281   3.779
   12PRO    HG1  194   3.293   4.238   3.877
   12PRO    HG2  195   3.167   4.334   3.790
   12PRO      C  196   3.478   4.415   3.502
   12PRO      O  197   3.506   4.534   3.495
   13SER      N  198   3.563   4.320   3.459
   13SER     HN  199   3.542   4.224   3.476
   13SER     CA  200   3.686   4.351   3.387
   13SER     HA  201   3.740   4.427   3.443
   13SER     CB  202   3.777   4.225   3.375
   13SER    HB1  203   3.793   4.184   3.477
   13SER    HB2  204   3.725   4.147   3.316
   13SER     OG  205   3.904   4.254   3.315
   13SER    HG1  206   3.973   4.243   3.383
   13SER      C  207   3.663   4.409   3.248
   13SER      O  208   3.727   4.506   3.208
   14SER      N  209   3.570   4.351   3.169
   14SER     HN  210   3.513   4.279   3.206
   14SER     CA  211   3.570   4.374   3.025
   14SER     HA  212   3.592   4.478   3.006
   14SER     CB  213   3.676   4.285   2.953
   14SER    HB1  214   3.676   4.307   2.843
   14SER    HB2  215   3.776   4.313   2.992
   14SER     OG  216   3.654   4.145   2.976
   14SER    HG1  217   3.702   4.096   2.907
   14SER      C  218   3.435   4.347   2.960
   14SER      O  219   3.424   4.338   2.838
   15GLY      N  220   3.328   4.335   3.040
   15GLY     HN  221   3.334   4.355   3.138
   15GLY     CA  222   3.201   4.282   2.991
   15GLY    HA1  223   3.190   4.303   2.886
   15GLY    HA2  224   3.199   4.176   3.014
   15GLY      C  225   3.084   4.344   3.058
   15GLY      O  226   3.041   4.453   3.019
   16ARG      N  227   3.023   4.274   3.155
   16ARG     HN  228   3.061   4.187   3.186
   16ARG     CA  229   2.905   4.322   3.223
   16ARG     HA  230   2.890   4.426   3.199
   16ARG     CB  231   2.781   4.247   3.171
   16ARG    HB1  232   2.792   4.234   3.061
   16ARG    HB2  233   2.773   4.145   3.215
   16ARG     CG  234   2.652   4.326   3.199
   16ARG    HG1  235   2.637   4.334   3.309
   16ARG    HG2  236   2.663   4.430   3.160
   16ARG     CD  237   2.525   4.266   3.141
   16ARG    HD1  238   2.508   4.163   3.182
   16ARG    HD2  239   2.438   4.331   3.167
   16ARG     NE  240   2.541   4.260   2.992
   16ARG     HE  241   2.618   4.305   2.948
   16ARG     CZ  242   2.463   4.183   2.914
   16ARG    NH1  243   2.353   4.126   2.961
   16ARG   HH11  244   2.299   4.065   2.905
   16ARG   HH12  245   2.318   4.155   3.052
   16ARG    NH2  246   2.498   4.165   2.787
   16ARG   HH21  247   2.585   4.205   2.756
   16ARG   HH22  248   2.444   4.108   2.727
   16ARG      C  249   2.916   4.304   3.374
   16ARG      O  250   2.928   4.190   3.420
   17PRO      N  251   2.912   4.409   3.456
   17PRO     CD  252   2.939   4.548   3.417
   17PRO    HD1  253   2.873   4.580   3.333
   17PRO    HD2  254   3.046   4.557   3.388
   17PRO     CA  255   2.880   4.397   3.598
   17PRO     HA  256   2.931   4.311   3.639
   17PRO     CB  257   2.930   4.530   3.655
   17PRO    HB1  258   2.878   4.558   3.748
   17PRO    HB2  259   3.040   4.522   3.674
   17PRO     CG  260   2.908   4.630   3.542
   17PRO    HG1  261   2.801   4.662   3.539
   17PRO    HG2  262   2.973   4.720   3.549
   17PRO      C  263   2.729   4.382   3.616
   17PRO      O  264   2.656   4.428   3.528
   18PRO      N  265   2.675   4.318   3.720
   18PRO     CD  266   2.753   4.264   3.832
   18PRO    HD1  267   2.784   4.349   3.897
   18PRO    HD2  268   2.842   4.207   3.798
   18PRO     CA  269   2.532   4.319   3.751
   18PRO     HA  270   2.486   4.262   3.672
   18PRO     CB  271   2.521   4.249   3.888
   18PRO    HB1  272   2.513   4.324   3.970
   18PRO    HB2  273   2.433   4.182   3.891
   18PRO     CG  274   2.654   4.174   3.904
   18PRO    HG1  275   2.680   4.159   4.011
   18PRO    HG2  276   2.648   4.076   3.853
   18PRO      C  277   2.466   4.457   3.754
   18PRO      O  278   2.530   4.546   3.810
   19PRO      N  279   2.343   4.486   3.709
   19PRO     CD  280   2.284   4.616   3.741
   19PRO    HD1  281   2.330   4.693   3.674
   19PRO    HD2  282   2.301   4.643   3.847
   19PRO     CA  283   2.248   4.399   3.639
   19PRO     HA  284   2.217   4.326   3.713
   19PRO     CB  285   2.134   4.494   3.600
   19PRO    HB1  286   2.157   4.543   3.503
   19PRO    HB2  287   2.036   4.441   3.592
   19PRO     CG  288   2.135   4.600   3.711
   19PRO    HG1  289   2.087   4.695   3.679
   19PRO    HG2  290   2.083   4.562   3.801
   19PRO      C  291   2.294   4.317   3.521
   19PRO      O  292   2.371   4.366   3.438
   20SER      N  293   2.247   4.192   3.512
   20SER     HN  294   2.187   4.155   3.582
   20SER     CA  295   2.276   4.102   3.402
   20SER     HA  296   2.381   4.112   3.375
   20SER     CB  297   2.248   3.953   3.437
   20SER    HB1  298   2.140   3.940   3.460
   20SER    HB2  299   2.271   3.890   3.348
   20SER     OG  300   2.325   3.906   3.548
   20SER    HG1  301   2.343   3.813   3.528
   20SER      C  302   2.191   4.134   3.278
   20SER    OT1  303   2.078   4.079   3.266
   20SER    OT2  304   2.235   4.211   3.188
   21SOL     OW  305   0.227   0.664   0.128
   21SOL    HW1  306   0.157   0.606   0.157
   21SOL    HW2  307   0.249   0.634   0.040
   22SOL     OW  308   0.218   0.289   0.983
   22SOL    HW1  309   0.271   0.243   1.047
   22SOL    HW2  310   0.128   0.261   1.001
   23SOL     OW  311   6.997   0.390   0.655
   23SOL    HW1  312   6.943   0.402   0.734
   23SOL    HW2  313   0.024   0.298   0.659
   24SOL     OW  314   0.570   1.299   1.188
   24SOL    HW1  315   0.485   1.304   1.145
   24SOL    HW2  316   0.586   1.388   1.219
   25SOL     OW  317   1.572   1.517   0.709
   25SOL    HW1  318   1.529   1.491   0.790
   25SOL    HW2  319   1.502   1.517   0.643
   26SOL     OW  320   1.132   0.698   0.694
   26SOL    HW1  321   1.181   0.779   0.683
   26SOL    HW2  322   1.083   0.710   0.775
   27SOL     OW  323   1.792   0.582   0.197
   27SOL    HW1  324   1.725   0.630   0.149
   27SOL    HW2  325   1.743   0.519   0.251
   28SOL     OW  326   0.742   1.136   1.049
   28SOL    HW1  327   0.677   1.175   1.107
   28SOL    HW2  328   0.783   1.212   1.006
   29SOL     OW  329   0.874   0.761   1.824
   29SOL    HW1  330   0.867   0.831   1.888
   29SOL    HW2  331   0.897   0.805   1.742
   30SOL     OW  332   0.685   0.996   0.646
   30SOL    HW1  333   0.752   0.990   0.714
   30SOL    HW2  334   0.616   1.052   0.684
   31SOL     OW  335   0.716   1.149   1.822
   31SOL    HW1  336   0.764   1.225   1.854
   31SOL    HW2  337   0.637   1.185   1.781
   32SOL     OW  338   0.338   1.415   1.066
   32SOL    HW1  339   0.265   1.377   1.017
   32SOL    HW2  340   0.382   1.472   1.002
   33SOL     OW  341   1.458   1.503   1.363
   33SOL    HW1  342   1.513   1.581   1.373
   33SOL    HW2  343   1.389   1.514   1.428
   34SOL     OW  344   0.449   0.407   1.493
   34SOL    HW1  345   0.531   0.357   1.495
   34SOL    HW2  346   0.380   0.342   1.503
   35SOL     OW  347   1.611   0.460   0.731
   35SOL    HW1  348   1.556   0.487   0.657
   35SOL    HW2  349   1.610   0.536   0.790
   36SOL     OW  350   0.199   1.749   0.467
   36SOL    HW1  351   0.236   1.814   0.527
   36SOL    HW2  352   0.274   1.715   0.418
   37SOL     OW  353   1.138   1.342   1.695
   37SOL    HW1  354   1.179   1.335   1.781
   37SOL    HW2  355   1.086   1.263   1.686
   38SOL     OW  356   0.279   1.465   0.538
   38SOL    HW1  357   0.241   1.551   0.560
   38SOL    HW2  358   0.242   1.406   0.603
   39SOL     OW  359   0.274   1.084   0.906
   39SOL    HW1  360   0.268   0.993   0.932
   39SOL    HW2  361   0.200   1.127   0.949
   40SOL     OW  362   0.602   1.794   1.426
   40SOL    HW1  363   0.519   1.777   1.471
   40SOL    HW2  364   0.627   1.882   1.454
   41SOL     OW  365   0.580   0.963   0.148
   41SOL    HW1  366   0.637   0.985   0.075
   41SOL    HW2  367   0.616   1.011   0.222
   42SOL     OW  368   1.573   0.128   1.439
   42SOL    HW1  369   1.599   0.216   1.414
   42SOL    HW2  370   1.582   0.125   1.534
   43SOL     OW  371   0.137   0.618   0.565
   43SOL    HW1  372   0.076   0.549   0.592
   43SOL    HW2  373   0.122   0.689   0.627
   44SOL     OW  374   1.846   1.760   0.338
   44SOL    HW1  375   1.914   1.731   0.399
   44SOL    HW2  376   1.850   1.856   0.343
   45SOL     OW  377   6.972   1.555   0.118
   45SOL    HW1  378   6.963   1.463   0.141
   45SOL    HW2  379   0.041   1.588   0.176
   46SOL     OW  380   1.690   0.915   0.647
   46SOL    HW1  381   1.769   0.869   0.618
   46SOL    HW2  382   1.666   0.971   0.573
   47SOL     OW  383   1.649   1.100   0.442
   47SOL    HW1  384   1.722   1.114   0.381
   47SOL    HW2  385   1.663   1.164   0.511
   48SOL     OW  386   0.151   0.736   1.568
   48SOL    HW1  387   0.245   0.748   1.555
   48SOL    HW2  388   0.120   0.820   1.601
   49SOL     OW  389   0.617   1.389   0.740
   49SOL    HW1  390   0.571   1.306   0.750
   49SOL    HW2  391   0.605   1.413   0.648
   50SOL     OW  392   1.284   1.235   1.420
   50SOL    HW1  393   1.313   1.166   1.360
   50SOL    HW2  394   1.344   1.229   1.495
   51SOL     OW  395   0.840   0.025   0.524
   51SOL    HW1  396   0.875   0.112   0.503
   51SOL    HW2  397   0.745   0.036   0.521
   52SOL     OW  398   0.201   0.958   1.262
   52SOL    HW1  399   0.282   0.911   1.244
   52SOL    HW2  400   0.140   0.929   1.195
   53SOL     OW  401   1.480   1.023   0.204
   53SOL    HW1  402   1.421   0.960   0.246
   53SOL    HW2  403   1.567   1.002   0.238
   54SOL     OW  404   1.183   1.815   1.627
   54SOL    HW1  405   1.188   1.876   1.554
   54SOL    HW2  406   1.201   1.730   1.588
   55SOL     OW  407   0.327   0.265   1.808
   55SOL    HW1  408   0.378   0.330   1.856
   55SOL    HW2  409   0.241   0.267   1.850
   56SOL     OW  410   1.467   1.421   0.944
   56SOL    HW1  411   1.401   1.436   1.012
   56SOL    HW2  412   1.455   1.329   0.919
   57SOL     OW  413   1.649   1.758   0.581
   57SOL    HW1  414   1.626   1.726   0.494
   57SOL    HW2  415   1.633   1.684   0.639
   58SOL     OW  416   0.596   0.711   0.260
   58SOL    HW1  417   0.599   0.799   0.223
   58SOL    HW2  418   0.535   0.717   0.333
   59SOL     OW  419   1.283   0.374   0.951
   59SOL    HW1  420   1.191   0.350   0.958
   59SOL    HW2  421   1.327   0.321   1.018
   60SOL     OW  422   1.578   1.680   0.321
   60SOL    HW1  423   1.672   1.693   0.311
   60SOL    HW2  424   1.545   1.676   0.231
   61SOL     OW  425   0.793   0.622   1.454
   61SOL    HW1  426   0.765   0.592   1.541
   61SOL    HW2  427   0.760   0.555   1.394
   62SOL     OW  428   1.396   0.480   1.680
   62SOL    HW1  429   1.400   0.520   1.767
   62SOL    HW2  430   1.448   0.400   1.687
   63SOL     OW  431   0.949   0.885   1.587
   63SOL    HW1  432   1.004   0.818   1.547
   63SOL    HW2  433   0.900   0.922   1.513
   64SOL     OW  434   0.994   0.414   1.230
   64SOL    HW1  435   0.907   0.433   1.265
   64SOL    HW2  436   0.978   0.372   1.146
   65SOL     OW  437   1.059   0.700   0.423
   65SOL    HW1  438   1.078   0.697   0.517
   65SOL    HW2  439   0.973   0.659   0.415
   66SOL     OW  440   0.101   0.813   0.774
   66SOL    HW1  441   0.190   0.808   0.809
   66SOL    HW2  442   0.047   0.840   0.848
   67SOL     OW  443   0.109   1.867   1.593
   67SOL    HW1  444   0.125   1.844   1.684
   67SOL    HW2  445   0.018   1.844   1.577
   68SOL     OW  446   0.884   0.373   0.209
   68SOL    HW1  447   0.925   0.419   0.136
   68SOL    HW2  448   0.870   0.284   0.178
   69SOL     OW  449   1.702   0.570   1.831
   69SOL    HW1  450   1.668   0.645   1.781
   69SOL    HW2  451   1.726   0.506   1.764
   70SOL     OW  452   1.386   1.141   0.556
   70SOL    HW1  453   1.465   1.131   0.503
   70SOL    HW2  454   1.332   1.203   0.507
   71SOL     OW  455   0.504   0.194   0.907
   71SOL    HW1  456   0.548   0.223   0.987
   71SOL    HW2  457   0.525   0.261   0.842
   72SOL     OW  458   0.992   1.438   0.474
   72SOL    HW1  459   0.966   1.516   0.426
   72SOL    HW2  460   0.967   1.457   0.565
   73SOL     OW  461   0.355   1.818   0.867
   73SOL    HW1  462   0.394   1.731   0.878
   73SOL    HW2  463   0.425   1.878   0.893
   74SOL     OW  464   1.803   1.045   0.876
   74SOL    HW1  465   1.752   1.030   0.797
   74SOL    HW2  466   1.737   1.054   0.945
   75SOL     OW  467   1.226   1.541   1.514
   75SOL    HW1  468   1.214   1.469   1.575
   75SOL    HW2  469   1.158   1.528   1.448
   76SOL     OW  470   0.302   0.937   0.217
   76SOL    HW1  471   0.392   0.950   0.189
   76SOL    HW2  472   0.283   0.846   0.195
   77SOL     OW  473   1.482   0.750   0.723
   77SOL    HW1  474   1.480   0.714   0.812
   77SOL    HW2  475   1.560   0.807   0.722
   78SOL     OW  476   0.474   1.266   1.735
   78SOL    HW1  477   0.448   1.274   1.644
   78SOL    HW2  478   0.392   1.265   1.784
   79SOL     OW  479   1.122   1.771   0.233
   79SOL    HW1  480   1.057   1.726   0.286
   79SOL    HW2  481   1.152   1.705   0.170
   80SOL     OW  482   0.203   0.275   1.521
   80SOL    HW1  483   0.152   0.356   1.521
   80SOL    HW2  484   0.216   0.254   1.613
   81SOL     OW  485   1.630   1.434   0.079
   81SOL    HW1  486   1.587   1.520   0.074
   81SOL    HW2  487   1.577   1.384   0.140
   82SOL     OW  488   0.473   1.716   0.354
   82SOL    HW1  489   0.509   1.783   0.411
   82SOL    HW2  490   0.548   1.681   0.306
   83SOL     OW  491   1.426   0.136   0.419
   83SOL    HW1  492   1.418   0.052   0.372
   83SOL    HW2  493   1.518   0.139   0.447
   84SOL     OW  494   0.256   1.792   1.222
   84SOL    HW1  495   0.303   1.717   1.259
   84SOL    HW2  496   0.211   1.756   1.146
   85SOL     OW  497   0.940   1.701   0.897
   85SOL    HW1  498   1.021   1.653   0.918
   85SOL    HW2  499   0.899   1.649   0.827
   86SOL     OW  500   0.405   0.692   0.464
   86SOL    HW1  501   0.426   0.600   0.483
   86SOL    HW2  502   0.312   0.699   0.484
   87SOL     OW  503   1.522   0.228   1.723
   87SOL    HW1  504   1.544   0.230   1.816
   87SOL    HW2  505   1.433   0.195   1.719
   88SOL     OW  506   0.623   0.125   0.100
   88SOL    HW1  507   0.718   0.115   0.111
   88SOL    HW2  508   0.612   0.141   0.006
   89SOL     OW  509   0.766   0.281   1.768
   89SOL    HW1  510   0.850   0.235   1.759
   89SOL    HW2  511   0.719   0.230   1.833
   90SOL     OW  512   0.877   1.524   1.195
   90SOL    HW1  513   0.858   1.486   1.109
   90SOL    HW2  514   0.945   1.469   1.232
   91SOL     OW  515   1.340   0.592   1.435
   91SOL    HW1  516   1.371   0.562   1.520
   91SOL    HW2  517   1.377   0.680   1.426
   92SOL     OW  518   0.819   1.388   0.950
   92SOL    HW1  519   0.904   1.377   0.906
   92SOL    HW2  520   0.756   1.395   0.878
   93SOL     OW  521   0.931   0.512   0.897
   93SOL    HW1  522   0.903   0.505   0.806
   93SOL    HW2  523   0.961   0.423   0.920
   94SOL     OW  524   0.579   0.066   0.488
   94SOL    HW1  525   0.503   0.056   0.545
   94SOL    HW2  526   0.553   0.132   0.424
   95SOL     OW  527   1.408   1.211   0.002
   95SOL    HW1  528   1.439   1.139   0.058
   95SOL    HW2  529   1.337   1.250   0.051
   96SOL     OW  530   0.300   0.087   0.170
   96SOL    HW1  531   0.361   0.155   0.198
   96SOL    HW2  532   0.295   0.027   0.244
   97SOL     OW  533   0.950   0.268   0.458
   97SOL    HW1  534   0.923   0.306   0.375
   97SOL    HW2  535   1.046   0.276   0.458
   98SOL     OW  536   1.082   0.687   1.455
   98SOL    HW1  537   1.019   0.616   1.467
   98SOL    HW2  538   1.167   0.643   1.453
   99SOL     OW  539   1.215   1.574   0.796
   99SOL    HW1  540   1.231   1.638   0.726
   99SOL    HW2  541   1.287   1.588   0.858
  100SOL     OW  542   0.473   1.154   0.733
  100SOL    HW1  543   0.408   1.133   0.799
  100SOL    HW2  544   0.430   1.135   0.650
  101SOL     OW  545   1.262   1.791   0.613
  101SOL    HW1  546   1.313   1.854   0.562
  101SOL    HW2  547   1.193   1.844   0.654
  102SOL     OW  548   1.056   0.558   0.030
  102SOL    HW1  549   0.974   0.604   0.051
  102SOL    HW2  550   1.109   0.566   0.110
  103SOL     OW  551   0.079   0.541   1.379
  103SOL    HW1  552   0.171   0.543   1.352
  103SOL    HW2  553   0.072   0.612   1.443
  104SOL     OW  554   0.578   0.243   1.172
  104SOL    HW1  555   0.620   0.169   1.215
  104SOL    HW2  556   0.486   0.237   1.198
  105SOL     OW  557   0.864   0.462   0.640
  105SOL    HW1  558   0.824   0.519   0.574
  105SOL    HW2  559   0.890   0.384   0.592
  106SOL     OW  560   0.968   0.021   0.774
  106SOL    HW1  561   0.914   0.024   0.695
  106SOL    HW2  562   1.025   6.946   0.761
  107SOL     OW  563   1.442   1.160   0.859
  107SOL    HW1  564   1.370   1.098   0.857
  107SOL    HW2  565   1.470   1.167   0.768
  108SOL     OW  566   1.465   0.613   0.967
  108SOL    HW1  567   1.409   0.535   0.971
  108SOL    HW2  568   1.524   0.604   1.042
  109SOL     OW  569   1.821   0.799   0.397
  109SOL    HW1  570   1.885   0.742   0.440
  109SOL    HW2  571   1.820   0.771   0.306
  110SOL     OW  572   0.478   1.421   0.160
  110SOL    HW1  573   0.457   1.354   0.225
  110SOL    HW2  574   0.410   1.413   0.093
  111SOL     OW  575   1.675   1.263   0.654
  111SOL    HW1  576   1.770   1.262   0.665
  111SOL    HW2  577   1.650   1.354   0.667
  112SOL     OW  578   1.392   0.552   0.061
  112SOL    HW1  579   1.341   0.543   0.141
  112SOL    HW2  580   1.458   0.482   0.066
  113SOL     OW  581   0.503   0.253   0.302
  113SOL    HW1  582   0.555   0.207   0.237
  113SOL    HW2  583   0.487   0.339   0.265
  114SOL     OW  584   1.747   1.243   1.559
  114SOL    HW1  585   1.835   1.205   1.549
  114SOL    HW2  586   1.762   1.332   1.589
  115SOL     OW  587   1.053   1.354   1.332
  115SOL    HW1  588   0.977   1.322   1.381
  115SOL    HW2  589   1.128   1.311   1.373
  116SOL     OW  590   1.610   1.629   1.660
  116SOL    HW1  591   1.600   1.663   1.571
  116SOL    HW2  592   1.691   1.578   1.658
  117SOL     OW  593   1.137   1.214   1.102
  117SOL    HW1  594   1.076   1.251   1.165
  117SOL    HW2  595   1.108   1.248   1.017
  118SOL     OW  596   1.621   1.094   1.075
  118SOL    HW1  597   1.613   1.158   1.146
  118SOL    HW2  598   1.548   1.114   1.017
  119SOL     OW  599   0.888   0.150   1.390
  119SOL    HW1  600   0.908   0.122   1.301
  119SOL    HW2  601   0.973   0.174   1.427
  120SOL     OW  602   0.985   1.115   1.723
  120SOL    HW1  603   0.894   1.132   1.748
  120SOL    HW2  604   0.981   1.036   1.669
  121SOL     OW  605   0.712   1.063   0.373
  121SOL    HW1  606   0.696   1.042   0.465
  121SOL    HW2  607   0.788   1.010   0.349
  122SOL     OW  608   0.432   0.811   1.245
  122SOL    HW1  609   0.496   0.823   1.315
  122SOL    HW2  610   0.394   0.724   1.262
  123SOL     OW  611   1.258   0.374   1.292
  123SOL    HW1  612   1.292   0.452   1.335
  123SOL    HW2  613   1.168   0.396   1.269
  124SOL     OW  614   0.067   1.565   1.328
  124SOL    HW1  615   0.023   1.647   1.351
  124SOL    HW2  616   0.160   1.582   1.345
  125SOL     OW  617   0.353   1.095   0.495
  125SOL    HW1  618   0.336   1.163   0.431
  125SOL    HW2  619   0.353   1.014   0.445
  126SOL     OW  620   0.548   0.535   0.860
  126SOL    HW1  621   0.562   0.594   0.786
  126SOL    HW2  622   0.616   0.559   0.923
  127SOL     OW  623   1.242   1.339   0.408
  127SOL    HW1  624   1.296   1.413   0.436
  127SOL    HW2  625   1.154   1.361   0.439
  128SOL     OW  626   1.292   1.462   1.149
  128SOL    HW1  627   1.347   1.467   1.227
  128SOL    HW2  628   1.238   1.384   1.162
  129SOL     OW  629   1.585   0.634   0.486
  129SOL    HW1  630   1.530   0.683   0.547
  129SOL    HW2  631   1.646   0.699   0.451
  130SOL     OW  632   0.348   1.535   1.308
  130SOL    HW1  633   0.334   1.487   1.227
  130SOL    HW2  634   0.443   1.545   1.314
  131SOL     OW  635   0.431   0.731   1.603
  131SOL    HW1  636   0.488   0.782   1.545
  131SOL    HW2  637   0.479   0.650   1.619
  132SOL     OW  638   1.611   0.783   1.689
  132SOL    HW1  639   1.525   0.824   1.682
  132SOL    HW2  640   1.663   0.824   1.619
  133SOL     OW  641   0.998   0.133   1.729
  133SOL    HW1  642   1.042   0.163   1.649
  133SOL    HW2  643   0.997   0.038   1.722
  134SOL     OW  644   0.471   0.034   1.764
  134SOL    HW1  645   0.404   6.966   1.759
  134SOL    HW2  646   0.423   0.116   1.770
  135SOL     OW  647   0.591   0.876   1.029
  135SOL    HW1  648   0.621   0.967   1.032
  135SOL    HW2  649   0.534   0.866   1.105
  136SOL     OW  650   1.343   0.859   1.020
  136SOL    HW1  651   1.257   0.842   0.981
  136SOL    HW2  652   1.390   0.776   1.010
  137SOL     OW  653   1.200   0.520   0.267
  137SOL    HW1  654   1.214   0.446   0.326
  137SOL    HW2  655   1.160   0.588   0.322
  138SOL     OW  656   0.319   0.209   1.248
  138SOL    HW1  657   0.266   0.224   1.326
  138SOL    HW2  658   0.294   0.121   1.219
  139SOL     OW  659   0.089   1.307   1.258
  139SOL    HW1  660   0.101   1.249   1.334
  139SOL    HW2  661   0.085   1.395   1.296
  140SOL     OW  662   0.724   0.633   1.050
  140SOL    HW1  663   0.800   0.621   0.993
  140SOL    HW2  664   0.694   0.722   1.031
  141SOL     OW  665   1.742   0.959   1.861
  141SOL    HW1  666   1.699   0.892   1.808
  141SOL    HW2  667   1.680   0.978   1.931
  142SOL     OW  668   0.350   0.066   0.620
  142SOL    HW1  669   0.313   0.143   0.663
  142SOL    HW2  670   0.294   6.994   0.648
  143SOL     OW  671   1.628   0.402   0.349
  143SOL    HW1  672   1.658   0.333   0.408
  143SOL    HW2  673   1.604   0.474   0.407
  144SOL     OW  674   1.030   0.759   0.957
  144SOL    HW1  675   1.020   0.776   1.051
  144SOL    HW2  676   1.003   0.668   0.946
  145SOL     OW  677   0.982   1.566   1.723
  145SOL    HW1  678   0.965   1.610   1.640
  145SOL    HW2  679   1.025   1.484   1.699
  146SOL     OW  680   1.850   1.500   1.603
  146SOL    HW1  681   1.872   1.528   1.515
  146SOL    HW2  682   1.930   1.513   1.654
  147SOL     OW  683   0.366   0.917   1.802
  147SOL    HW1  684   0.443   0.940   1.854
  147SOL    HW2  685   0.398   0.851   1.740
  148SOL     OW  686   1.513   0.281   0.134
  148SOL    HW1  687   1.453   0.210   0.160
  148SOL    HW2  688   1.546   0.316   0.216
  149SOL     OW  689   1.285   0.813   0.037
  149SOL    HW1  690   1.336   0.734   0.025
  149SOL    HW2  691   1.312   0.871   6.966
  150SOL     OW  692   1.069   1.340   0.858
  150SOL    HW1  693   1.076   1.268   0.795
  150SOL    HW2  694   1.126   1.408   0.822
  151SOL     OW  695   0.320   0.805   0.942
  151SOL    HW1  696   0.414   0.825   0.941
  151SOL    HW2  697   0.316   0.716   0.976
  152SOL     OW  698   0.328   0.531   1.014
  152SOL    HW1  699   0.287   0.446   0.995
  152SOL    HW2  700   0.405   0.533   0.957
  153SOL     OW  701   1.126   0.420   1.666
  153SOL    HW1  702   1.082   0.456   1.743
  153SOL    HW2  703   1.218   0.443   1.677
  154SOL     OW  704   1.131   0.219   1.492
  154SOL    HW1  705   1.131   0.296   1.549
  154SOL    HW2  706   1.188   0.242   1.419
  155SOL     OW  707   0.002   1.300   0.219
  155SOL    HW1  708   6.936   1.321   0.286
  155SOL    HW2  709   0.024   1.208   0.235
  156SOL     OW  710   0.096   1.749   0.956
  156SOL    HW1  711   0.080   1.679   0.893
  156SOL    HW2  712   0.176   1.792   0.924
  157SOL     OW  713   0.490   1.577   0.902
  157SOL    HW1  714   0.559   1.639   0.926
  157SOL    HW2  715   0.534   1.512   0.847
  158SOL     OW  716   0.972   0.787   1.222
  158SOL    HW1  717   1.031   0.767   1.294
  158SOL    HW2  718   0.888   0.748   1.249
  159SOL     OW  719   0.052   0.604   1.106
  159SOL    HW1  720   0.134   0.572   1.068
  159SOL    HW2  721   0.058   0.580   1.199
  160SOL     OW  722   0.210   0.521   1.719
  160SOL    HW1  723   0.298   0.492   1.692
  160SOL    HW2  724   0.197   0.603   1.671
  161SOL     OW  725   1.382   0.932   1.656
  161SOL    HW1  726   1.403   1.025   1.652
  161SOL    HW2  727   1.378   0.904   1.565
  162SOL     OW  728   0.816   0.578   0.382
  162SOL    HW1  729   0.827   0.504   0.321
  162SOL    HW2  730   0.739   0.625   0.349
  163SOL     OW  731   1.640   0.602   1.178
  163SOL    HW1  732   1.628   0.542   1.252
  163SOL    HW2  733   1.728   0.583   1.146
  164SOL     OW  734   0.281   1.560   1.733
  164SOL    HW1  735   0.229   1.621   1.786
  164SOL    HW2  736   0.264   1.474   1.772
  165SOL     OW  737   0.718   0.459   1.255
  165SOL    HW1  738   0.665   0.384   1.228
  165SOL    HW2  739   0.711   0.522   1.183
  166SOL     OW  740   0.921   1.678   1.472
  166SOL    HW1  741   0.897   1.637   1.389
  166SOL    HW2  742   0.915   1.772   1.456
  167SOL     OW  743   0.453   0.488   0.180
  167SOL    HW1  744   0.508   0.563   0.201
  167SOL    HW2  745   0.364   0.518   0.198
  168SOL     OW  746   0.162   1.127   1.466
  168SOL    HW1  747   0.152   1.066   1.538
  168SOL    HW2  748   0.174   1.072   1.389
  169SOL     OW  749   1.318   1.042   1.218
  169SOL    HW1  750   1.339   0.979   1.150
  169SOL    HW2  751   1.253   1.101   1.179
  170SOL     OW  752   1.300   0.845   0.312
  170SOL    HW1  753   1.224   0.807   0.357
  170SOL    HW2  754   1.287   0.823   0.220
  171SOL     OW  755   1.783   1.734   1.160
  171SOL    HW1  756   1.842   1.760   1.090
  171SOL    HW2  757   1.753   1.647   1.136
  172SOL     OW  758   1.239   1.733   1.104
  172SOL    HW1  759   1.322   1.758   1.063
  172SOL    HW2  760   1.250   1.640   1.125
  173SOL     OW  761   0.065   1.239   1.000
  173SOL    HW1  762   0.082   1.260   1.091
  173SOL    HW2  763   6.970   1.229   0.994
  174SOL     OW  764   0.681   1.673   1.741
  174SOL    HW1  765   0.619   1.745   1.733
  174SOL    HW2  766   0.748   1.692   1.676
  175SOL     OW  767   0.893   0.113   0.127
  175SOL    HW1  768   0.982   0.132   0.099
  175SOL    HW2  769   0.902   0.036   0.184
  176SOL     OW  770   1.726   0.185   0.487
  176SOL    HW1  771   1.795   0.154   0.429
  176SOL    HW2  772   1.713   0.114   0.549
  177SOL     OW  773   1.388   1.563   0.495
  177SOL    HW1  774   1.448   1.593   0.427
  177SOL    HW2  775   1.341   1.642   0.522
  178SOL     OW  776   0.141   1.786   1.854
  178SOL    HW1  777   0.100   1.718   1.907
  178SOL    HW2  778   0.188   1.840   1.917
  179SOL     OW  779   1.277   0.925   0.674
  179SOL    HW1  780   1.351   0.865   0.685
  179SOL    HW2  781   1.313   0.998   0.623
  180SOL     OW  782   0.802   1.278   1.422
  180SOL    HW1  783   0.775   1.320   1.504
  180SOL    HW2  784   0.730   1.297   1.361
  181SOL     OW  785   0.673   1.612   0.196
  181SOL    HW1  786   0.670   1.663   0.116
  181SOL    HW2  787   0.620   1.534   0.177
  182SOL     OW  788   1.618   1.728   1.393
  182SOL    HW1  789   1.673   1.732   1.314
  182SOL    HW2  790   1.604   1.820   1.416
  183SOL     OW  791   1.871   0.159   0.952
  183SOL    HW1  792   1.858   0.065   0.958
  183SOL    HW2  793   1.784   0.195   0.938
  184SOL     OW  794   0.288   0.337   0.717
  184SOL    HW1  795   0.203   0.374   0.694
  184SOL    HW2  796   0.279   0.311   0.809
  185SOL     OW  797   1.216   1.593   0.038
  185SOL    HW1  798   1.208   1.502   0.066
  185SOL    HW2  799   1.131   1.613   6.997
  186SOL     OW  800   0.824   1.009   1.376
  186SOL    HW1  801   0.865   1.001   1.290
  186SOL    HW2  802   0.819   1.103   1.393
  187SOL     OW  803   0.922   0.916   0.291
  187SOL    HW1  804   0.974   0.943   0.215
  187SOL    HW2  805   0.974   0.849   0.334
  188SOL     OW  806   1.477   1.673   0.050
  188SOL    HW1  807   1.386   1.642   0.043
  188SOL    HW2  808   1.508   1.675   6.960
  189SOL     OW  809   0.374   1.308   1.491
  189SOL    HW1  810   0.358   1.385   1.436
  189SOL    HW2  811   0.306   1.246   1.464
  190SOL     OW  812   1.606   1.285   1.278
  190SOL    HW1  813   1.666   1.268   1.351
  190SOL    HW2  814   1.546   1.352   1.312
  191SOL     OW  815   1.064   1.111   0.712
  191SOL    HW1  816   0.990   1.062   0.749
  191SOL    HW2  817   1.127   1.044   0.687
  192SOL     OW  818   1.028   0.248   0.947
  192SOL    HW1  819   1.006   0.196   0.870
  192SOL    HW2  820   1.013   0.189   1.021
  193SOL     OW  821   0.616   1.482   0.485
  193SOL    HW1  822   0.658   1.439   0.411
  193SOL    HW2  823   0.537   1.522   0.449
  194SOL     OW  824   1.731   0.388   1.378
  194SOL    HW1  825   1.800   0.454   1.382
  194SOL    HW2  826   1.768   0.317   1.325
  195SOL     OW  827   0.285   1.299   0.329
  195SOL    HW1  828   0.196   1.298   0.295
  195SOL    HW2  829   0.283   1.360   0.402
  196SOL     OW  830   0.122   0.972   1.701
  196SOL    HW1  831   0.074   1.022   1.767
  196SOL    HW2  832   0.208   0.957   1.740
  197SOL     OW  833   0.666   0.242   1.512
  197SOL    HW1  834   0.744   0.218   1.461
  197SOL    HW2  835   0.701   0.271   1.596
  198SOL     OW  836   0.068   0.439   0.042
  198SOL    HW1  837   6.988   0.396   0.073
  198SOL    HW2  838   0.087   0.397   6.958
  199SOL     OW  839   1.425   0.858   1.397
  199SOL    HW1  840   1.374   0.918   1.342
  199SOL    HW2  841   1.513   0.861   1.359
  200SOL     OW  842   0.018   0.184   0.326
  200SOL    HW1  843   0.084   0.253   0.324
  200SOL    HW2  844   0.058   0.111   0.280
  201SOL     OW  845   1.187   1.338   0.131
  201SOL    HW1  846   1.094   1.317   0.122
  201SOL    HW2  847   1.204   1.331   0.225
  202SOL     OW  848   0.623   0.833   1.436
  202SOL    HW1  849   0.678   0.909   1.421
  202SOL    HW2  850   0.684   0.760   1.445
  203SOL     OW  851   1.483   1.788   0.984
  203SOL    HW1  852   1.506   1.856   0.920
  203SOL    HW2  853   1.567   1.755   1.016
  204SOL     OW  854   0.711   0.559   1.705
  204SOL    HW1  855   0.760   0.621   1.760
  204SOL    HW2  856   0.732   0.473   1.742
  205SOL     OW  857   1.474   1.192   1.627
  205SOL    HW1  858   1.463   1.209   1.721
  205SOL    HW2  859   1.566   1.213   1.610
  206SOL     OW  860   0.368   1.752   1.561
  206SOL    HW1  861   0.281   1.790   1.547
  206SOL    HW2  862   0.351   1.671   1.609
  207SOL     OW  863   1.663   0.879   1.255
  207SOL    HW1  864   1.660   0.794   1.211
  207SOL    HW2  865   1.652   0.943   1.184
  208SOL     OW  866   1.223   0.317   0.450
  208SOL    HW1  867   1.292   0.251   0.441
  208SOL    HW2  868   1.247   0.366   0.529
  209SOL     OW  869   0.588   0.735   0.672
  209SOL    HW1  870   0.627   0.821   0.662
  209SOL    HW2  871   0.524   0.728   0.601
  210SOL     OW  872   1.749   0.368   1.652
  210SOL    HW1  873   1.741   0.380   1.557
  210SOL    HW2  874   1.677   0.308   1.674
  211SOL     OW  875   1.752   0.933   1.510
  211SOL    HW1  876   1.737   1.027   1.523
  211SOL    HW2  877   1.731   0.918   1.418
  212SOL     OW  878   0.894   1.381   0.050
  212SOL    HW1  879   0.840   1.363   0.126
  212SOL    HW2  880   0.901   1.477   0.047
  213SOL     OW  881   0.664   1.784   0.934
  213SOL    HW1  882   0.649   1.877   0.916
  213SOL    HW2  883   0.760   1.774   0.931
  214SOL     OW  884   0.870   0.973   0.854
  214SOL    HW1  885   0.920   0.900   0.891
  214SOL    HW2  886   0.829   1.015   0.929
  215SOL     OW  887   1.079   0.988   0.072
  215SOL    HW1  888   1.104   1.048   0.001
  215SOL    HW2  889   1.149   0.923   0.074
  216SOL     OW  890   1.846   1.554   0.839
  216SOL    HW1  891   1.766   1.541   0.788
  216SOL    HW2  892   1.842   1.486   0.907
  217SOL     OW  893   0.237   1.308   1.864
  217SOL    HW1  894   0.148   1.274   1.857
  217SOL    HW2  895   0.251   1.317   1.958
  218SOL     OW  896   0.149   1.285   0.701
  218SOL    HW1  897   0.115   1.242   0.780
  218SOL    HW2  898   0.157   1.214   0.637
  219SOL     OW  899   0.689   1.410   1.634
  219SOL    HW1  900   0.609   1.367   1.664
  219SOL    HW2  901   0.685   1.498   1.670
  220SOL     OW  902   1.852   0.190   1.239
  220SOL    HW1  903   1.782   0.129   1.217
  220SOL    HW2  904   1.885   0.219   1.154
  221SOL     OW  905   0.450   0.434   0.520
  221SOL    HW1  906   0.489   0.358   0.478
  221SOL    HW2  907   0.412   0.401   0.601
  222SOL     OW  908   1.694   1.486   1.092
  222SOL    HW1  909   1.617   1.467   1.039
  222SOL    HW2  910   1.698   1.416   1.156
  223SOL     OW  911   0.335   0.558   1.293
  223SOL    HW1  912   0.391   0.504   1.349
  223SOL    HW2  913   0.353   0.528   1.204
  224SOL     OW  914   0.831   1.579   0.678
  224SOL    HW1  915   0.810   1.643   0.610
  224SOL    HW2  916   0.757   1.519   0.679
  225SOL     OW  917   1.409   0.214   1.131
  225SOL    HW1  918   1.486   0.176   1.173
  225SOL    HW2  919   1.363   0.259   1.202
  226SOL     OW  920   0.971   0.060   1.136
  226SOL    HW1  921   0.921   6.996   1.086
  226SOL    HW2  922   1.022   0.007   1.197
  227SOL     OW  923   0.782   1.324   0.308
  227SOL    HW1  924   0.753   1.234   0.327
  227SOL    HW2  925   0.857   1.337   0.367
  228SOL     OW  926   0.622   1.557   1.288
  228SOL    HW1  927   0.621   1.639   1.336
  228SOL    HW2  928   0.710   1.551   1.251
  229SOL     OW  929   1.354   0.049   0.137
  229SOL    HW1  930   1.345   6.959   0.106
  229SOL    HW2  931   1.268   0.088   0.122
  230SOL     OW  932   1.267   0.451   0.683
  230SOL    HW1  933   1.223   0.536   0.683
  230SOL    HW2  934   1.286   0.434   0.775
  231SOL     OW  935   1.623   0.257   0.915
  231SOL    HW1  936   1.535   0.240   0.949
  231SOL    HW2  937   1.608   0.320   0.844
  232SOL     OW  938   0.070   1.053   0.310
  232SOL    HW1  939   0.154   1.009   0.293
  232SOL    HW2  940   0.006   0.982   0.311
  233SOL     OW  941   0.896   1.662   0.352
  233SOL    HW1  942   0.821   1.640   0.296
  233SOL    HW2  943   0.866   1.736   0.405
  234SOL     OW  944   0.171   0.651   1.985
  234SOL    HW1  945   0.170   0.589   2.057
  234SOL    HW2  946   0.215   0.604   1.913
  235SOL     OW  947   0.217   0.289   2.845
  235SOL    HW1  948   0.271   0.243   2.909
  235SOL    HW2  949   0.128   0.261   2.864
  236SOL     OW  950   6.999   0.390   2.516
  236SOL    HW1  951   6.944   0.402   2.594
  236SOL    HW2  952   0.024   0.297   2.518
  237SOL     OW  953   0.570   1.299   3.050
  237SOL    HW1  954   0.485   1.304   3.006
  237SOL    HW2  955   0.586   1.388   3.081
  238SOL     OW  956   1.574   1.515   2.571
  238SOL    HW1  957   1.530   1.491   2.652
  238SOL    HW2  958   1.504   1.519   2.506
  239SOL     OW  959   1.133   0.700   2.556
  239SOL    HW1  960   1.181   0.782   2.544
  239SOL    HW2  961   1.085   0.713   2.638
  240SOL     OW  962   1.779   0.601   2.085
  240SOL    HW1  963   1.754   0.597   1.993
  240SOL    HW2  964   1.738   0.524   2.125
  241SOL     OW  965   0.742   1.136   2.910
  241SOL    HW1  966   0.677   1.175   2.969
  241SOL    HW2  967   0.782   1.212   2.867
  242SOL     OW  968   0.875   0.761   3.686
  242SOL    HW1  969   0.867   0.831   3.750
  242SOL    HW2  970   0.897   0.805   3.604
  243SOL     OW  971   0.685   0.998   2.507
  243SOL    HW1  972   0.752   0.991   2.575
  243SOL    HW2  973   0.616   1.053   2.545
  244SOL     OW  974   0.716   1.148   3.684
  244SOL    HW1  975   0.764   1.225   3.715
  244SOL    HW2  976   0.637   1.185   3.642
  245SOL     OW  977   0.338   1.416   2.927
  245SOL    HW1  978   0.264   1.380   2.878
  245SOL    HW2  979   0.383   1.473   2.865
  246SOL     OW  980   1.458   1.503   3.225
  246SOL    HW1  981   1.513   1.581   3.235
  246SOL    HW2  982   1.389   1.513   3.290
  247SOL     OW  983   0.449   0.408   3.355
  247SOL    HW1  984   0.531   0.358   3.357
  247SOL    HW2  985   0.380   0.342   3.365
  248SOL     OW  986   1.613   0.456   2.589
  248SOL    HW1  987   1.563   0.487   2.513
  248SOL    HW2  988   1.609   0.529   2.651
  249SOL     OW  989   0.224   1.708   2.329
  249SOL    HW1  990   0.241   1.786   2.382
  249SOL    HW2  991   0.290   1.710   2.260
  250SOL     OW  992   1.138   1.343   3.556
  250SOL    HW1  993   1.179   1.336   3.643
  250SOL    HW2  994   1.086   1.263   3.548
  251SOL     OW  995   0.286   1.443   2.380
  251SOL    HW1  996   0.259   1.534   2.387
  251SOL    HW2  997   0.241   1.399   2.452
  252SOL     OW  998   0.273   1.084   2.764
  252SOL    HW1  999   0.268   0.992   2.792
  252SOL    HW2 1000   0.200   1.126   2.810
  253SOL     OW 1001   0.603   1.793   3.289
  253SOL    HW1 1002   0.519   1.776   3.333
  253SOL    HW2 1003   0.627   1.882   3.316
  254SOL     OW 1004   0.576   0.986   2.003
  254SOL    HW1 1005   0.627   1.031   1.935
  254SOL    HW2 1006   0.614   1.017   2.085
  255SOL     OW 1007   1.573   0.127   3.301
  255SOL    HW1 1008   1.598   0.217   3.277
  255SOL    HW2 1009   1.583   0.125   3.396
  256SOL     OW 1010   0.135   0.618   2.428
  256SOL    HW1 1011   0.077   0.548   2.457
  256SOL    HW2 1012   0.119   0.689   2.490
  257SOL     OW 1013   1.844   1.752   2.191
  257SOL    HW1 1014   1.914   1.728   2.252
  257SOL    HW2 1015   1.860   1.845   2.171
  258SOL     OW 1016   0.035   1.593   2.010
  258SOL    HW1 1017   0.026   1.499   2.024
  258SOL    HW2 1018   6.951   1.629   2.038
  259SOL     OW 1019   1.690   0.919   2.508
  259SOL    HW1 1020   1.771   0.874   2.484
  259SOL    HW2 1021   1.668   0.971   2.431
  260SOL     OW 1022   1.651   1.102   2.292
  260SOL    HW1 1023   1.737   1.102   2.251
  260SOL    HW2 1024   1.658   1.166   2.363
  261SOL     OW 1025   0.151   0.735   3.430
  261SOL    HW1 1026   0.245   0.748   3.417
  261SOL    HW2 1027   0.120   0.820   3.463
  262SOL     OW 1028   0.616   1.391   2.599
  262SOL    HW1 1029   0.570   1.308   2.608
  262SOL    HW2 1030   0.600   1.418   2.509
  263SOL     OW 1031   1.284   1.235   3.282
  263SOL    HW1 1032   1.314   1.166   3.222
  263SOL    HW2 1033   1.344   1.229   3.357
  264SOL     OW 1034   0.840   0.024   2.382
  264SOL    HW1 1035   0.872   0.112   2.361
  264SOL    HW2 1036   0.744   0.033   2.380
  265SOL     OW 1037   0.202   0.959   3.124
  265SOL    HW1 1038   0.283   0.911   3.106
  265SOL    HW2 1039   0.141   0.929   3.057
  266SOL     OW 1040   1.531   1.001   2.063
  266SOL    HW1 1041   1.462   0.943   2.095
  266SOL    HW2 1042   1.574   1.034   2.141
  267SOL     OW 1043   1.184   1.816   3.489
  267SOL    HW1 1044   1.188   1.877   3.416
  267SOL    HW2 1045   1.201   1.730   3.450
  268SOL     OW 1046   0.327   0.265   3.670
  268SOL    HW1 1047   0.378   0.330   3.718
  268SOL    HW2 1048   0.241   0.266   3.712
  269SOL     OW 1049   1.468   1.419   2.807
  269SOL    HW1 1050   1.402   1.436   2.874
  269SOL    HW2 1051   1.455   1.328   2.781
  270SOL     OW 1052   1.652   1.758   2.438
  270SOL    HW1 1053   1.634   1.724   2.350
  270SOL    HW2 1054   1.635   1.684   2.496
  271SOL     OW 1055   0.588   0.711   2.123
  271SOL    HW1 1056   0.597   0.798   2.084
  271SOL    HW2 1057   0.529   0.725   2.198
  272SOL     OW 1058   1.283   0.375   2.813
  272SOL    HW1 1059   1.191   0.350   2.820
  272SOL    HW2 1060   1.327   0.322   2.880
  273SOL     OW 1061   1.578   1.674   2.173
  273SOL    HW1 1062   1.670   1.698   2.164
  273SOL    HW2 1063   1.549   1.658   2.084
  274SOL     OW 1064   0.792   0.622   3.317
  274SOL    HW1 1065   0.765   0.592   3.403
  274SOL    HW2 1066   0.761   0.555   3.257
  275SOL     OW 1067   1.396   0.480   3.542
  275SOL    HW1 1068   1.400   0.520   3.629
  275SOL    HW2 1069   1.448   0.400   3.550
  276SOL     OW 1070   0.949   0.885   3.449
  276SOL    HW1 1071   1.004   0.817   3.409
  276SOL    HW2 1072   0.900   0.922   3.375
  277SOL     OW 1073   0.994   0.414   3.092
  277SOL    HW1 1074   0.907   0.434   3.127
  277SOL    HW2 1075   0.978   0.370   3.009
  278SOL     OW 1076   1.055   0.698   2.286
  278SOL    HW1 1077   1.073   0.693   2.380
  278SOL    HW2 1078   0.970   0.655   2.275
  279SOL     OW 1079   0.097   0.814   2.638
  279SOL    HW1 1080   0.187   0.810   2.670
  279SOL    HW2 1081   0.045   0.837   2.715
  280SOL     OW 1082   0.109   1.868   3.455
  280SOL    HW1 1083   0.125   1.845   3.547
  280SOL    HW2 1084   0.018   1.844   3.439
  281SOL     OW 1085   0.889   0.356   2.062
  281SOL    HW1 1086   0.936   0.412   1.999
  281SOL    HW2 1087   0.858   0.282   2.009
  282SOL     OW 1088   1.702   0.569   3.692
  282SOL    HW1 1089   1.668   0.644   3.643
  282SOL    HW2 1090   1.727   0.506   3.625
  283SOL     OW 1091   1.382   1.142   2.401
  283SOL    HW1 1092   1.461   1.132   2.348
  283SOL    HW2 1093   1.329   1.204   2.352
  284SOL     OW 1094   0.503   0.194   2.770
  284SOL    HW1 1095   0.548   0.224   2.848
  284SOL    HW2 1096   0.523   0.260   2.704
  285SOL     OW 1097   0.998   1.445   2.329
  285SOL    HW1 1098   0.969   1.520   2.278
  285SOL    HW2 1099   0.972   1.465   2.419
  286SOL     OW 1100   0.353   1.821   2.730
  286SOL    HW1 1101   0.394   1.735   2.740
  286SOL    HW2 1102   0.423   1.883   2.751
  287SOL     OW 1103   1.802   1.051   2.735
  287SOL    HW1 1104   1.750   1.031   2.657
  287SOL    HW2 1105   1.737   1.058   2.806
  288SOL     OW 1106   1.226   1.541   3.375
  288SOL    HW1 1107   1.214   1.469   3.437
  288SOL    HW2 1108   1.156   1.529   3.311
  289SOL     OW 1109   0.312   0.946   2.115
  289SOL    HW1 1110   0.395   0.967   2.071
  289SOL    HW2 1111   0.287   0.861   2.080
  290SOL     OW 1112   1.482   0.752   2.584
  290SOL    HW1 1113   1.479   0.714   2.672
  290SOL    HW2 1114   1.560   0.808   2.585
  291SOL     OW 1115   0.474   1.266   3.597
  291SOL    HW1 1116   0.448   1.274   3.506
  291SOL    HW2 1117   0.392   1.265   3.646
  292SOL     OW 1118   1.127   1.777   2.091
  292SOL    HW1 1119   1.049   1.740   2.133
  292SOL    HW2 1120   1.150   1.714   2.023
  293SOL     OW 1121   0.203   0.274   3.383
  293SOL    HW1 1122   0.152   0.355   3.384
  293SOL    HW2 1123   0.217   0.253   3.475
  294SOL     OW 1124   1.629   1.383   1.955
  294SOL    HW1 1125   1.588   1.468   1.940
  294SOL    HW2 1126   1.562   1.319   1.933
  295SOL     OW 1127   0.465   1.737   2.178
  295SOL    HW1 1128   0.510   1.790   2.244
  295SOL    HW2 1129   0.536   1.702   2.124
  296SOL     OW 1130   1.425   0.140   2.289
  296SOL    HW1 1131   1.411   0.092   2.208
  296SOL    HW2 1132   1.520   0.142   2.300
  297SOL     OW 1133   0.255   1.792   3.085
  297SOL    HW1 1134   0.303   1.718   3.121
  297SOL    HW2 1135   0.212   1.758   3.007
  298SOL     OW 1136   0.940   1.701   2.756
  298SOL    HW1 1137   1.019   1.652   2.779
  298SOL    HW2 1138   0.900   1.650   2.686
  299SOL     OW 1139   0.402   0.691   2.331
  299SOL    HW1 1140   0.426   0.600   2.348
  299SOL    HW2 1141   0.309   0.697   2.355
  300SOL     OW 1142   1.523   0.228   3.585
  300SOL    HW1 1143   1.543   0.230   3.678
  300SOL    HW2 1144   1.433   0.194   3.580
  301SOL     OW 1145   0.655   0.113   1.962
  301SOL    HW1 1146   0.689   0.040   2.014
  301SOL    HW2 1147   0.592   0.072   1.902
  302SOL     OW 1148   0.767   0.281   3.630
  302SOL    HW1 1149   0.851   0.236   3.621
  302SOL    HW2 1150   0.719   0.230   3.695
  303SOL     OW 1151   0.876   1.524   3.056
  303SOL    HW1 1152   0.858   1.485   2.971
  303SOL    HW2 1153   0.945   1.469   3.093
  304SOL     OW 1154   1.340   0.592   3.297
  304SOL    HW1 1155   1.371   0.562   3.382
  304SOL    HW2 1156   1.377   0.680   3.288
  305SOL     OW 1157   0.819   1.387   2.810
  305SOL    HW1 1158   0.904   1.377   2.767
  305SOL    HW2 1159   0.757   1.396   2.738
  306SOL     OW 1160   0.931   0.513   2.758
  306SOL    HW1 1161   0.903   0.506   2.666
  306SOL    HW2 1162   0.960   0.424   2.780
  307SOL     OW 1163   0.577   0.063   2.344
  307SOL    HW1 1164   0.503   0.056   2.404
  307SOL    HW2 1165   0.553   0.134   2.285
  308SOL     OW 1166   1.428   1.202   1.900
  308SOL    HW1 1167   1.457   1.127   1.952
  308SOL    HW2 1168   1.343   1.225   1.936
  309SOL     OW 1169   0.316   0.045   2.063
  309SOL    HW1 1170   0.341   0.137   2.063
  309SOL    HW2 1171   0.367   0.006   2.134
  310SOL     OW 1172   0.949   0.269   2.317
  310SOL    HW1 1173   0.924   0.300   2.230
  310SOL    HW2 1174   1.044   0.279   2.319
  311SOL     OW 1175   1.082   0.687   3.317
  311SOL    HW1 1176   1.019   0.616   3.330
  311SOL    HW2 1177   1.167   0.643   3.315
  312SOL     OW 1178   1.218   1.574   2.657
  312SOL    HW1 1179   1.231   1.638   2.588
  312SOL    HW2 1180   1.288   1.592   2.720
  313SOL     OW 1181   0.472   1.154   2.592
  313SOL    HW1 1182   0.408   1.132   2.660
  313SOL    HW2 1183   0.425   1.140   2.509
  314SOL     OW 1184   1.262   1.792   2.476
  314SOL    HW1 1185   1.311   1.854   2.421
  314SOL    HW2 1186   1.193   1.844   2.515
  315SOL     OW 1187   1.020   0.534   1.895
  315SOL    HW1 1188   0.978   0.617   1.875
  315SOL    HW2 1189   1.086   0.555   1.960
  316SOL     OW 1190   0.078   0.541   3.241
  316SOL    HW1 1191   0.170   0.543   3.214
  316SOL    HW2 1192   0.071   0.612   3.305
  317SOL     OW 1193   0.579   0.244   3.034
  317SOL    HW1 1194   0.620   0.168   3.075
  317SOL    HW2 1195   0.487   0.237   3.060
  318SOL     OW 1196   0.865   0.465   2.499
  318SOL    HW1 1197   0.817   0.520   2.436
  318SOL    HW2 1198   0.890   0.388   2.449
  319SOL     OW 1199   0.967   0.022   2.634
  319SOL    HW1 1200   0.914   0.025   2.555
  319SOL    HW2 1201   1.025   6.946   2.622
  320SOL     OW 1202   1.440   1.159   2.718
  320SOL    HW1 1203   1.368   1.097   2.720
  320SOL    HW2 1204   1.463   1.167   2.626
  321SOL     OW 1205   1.465   0.612   2.827
  321SOL    HW1 1206   1.409   0.534   2.832
  321SOL    HW2 1207   1.524   0.603   2.902
  322SOL     OW 1208   1.838   0.810   2.249
  322SOL    HW1 1209   1.898   0.761   2.306
  322SOL    HW2 1210   1.816   0.747   2.180
  323SOL     OW 1211   0.500   1.424   2.009
  323SOL    HW1 1212   0.422   1.398   2.057
  323SOL    HW2 1213   0.490   1.384   1.923
  324SOL     OW 1214   1.679   1.265   2.502
  324SOL    HW1 1215   1.774   1.264   2.518
  324SOL    HW2 1216   1.652   1.354   2.524
  325SOL     OW 1217   1.395   0.574   1.935
  325SOL    HW1 1218   1.333   0.552   2.004
  325SOL    HW2 1219   1.481   0.561   1.975
  326SOL     OW 1220   0.517   0.254   2.158
  326SOL    HW1 1221   0.577   0.214   2.095
  326SOL    HW2 1222   0.498   0.340   2.120
  327SOL     OW 1223   1.747   1.243   3.419
  327SOL    HW1 1224   1.834   1.204   3.413
  327SOL    HW2 1225   1.762   1.332   3.450
  328SOL     OW 1226   1.053   1.353   3.193
  328SOL    HW1 1227   0.977   1.322   3.242
  328SOL    HW2 1228   1.128   1.311   3.235
  329SOL     OW 1229   1.610   1.629   3.522
  329SOL    HW1 1230   1.601   1.663   3.433
  329SOL    HW2 1231   1.691   1.578   3.520
  330SOL     OW 1232   1.138   1.213   2.963
  330SOL    HW1 1233   1.076   1.250   3.027
  330SOL    HW2 1234   1.108   1.248   2.879
  331SOL     OW 1235   1.622   1.095   2.937
  331SOL    HW1 1236   1.615   1.159   3.009
  331SOL    HW2 1237   1.547   1.114   2.881
  332SOL     OW 1238   0.888   0.150   3.253
  332SOL    HW1 1239   0.908   0.122   3.163
  332SOL    HW2 1240   0.973   0.174   3.289
  333SOL     OW 1241   0.985   1.115   3.585
  333SOL    HW1 1242   0.894   1.132   3.610
  333SOL    HW2 1243   0.981   1.036   3.531
  334SOL     OW 1244   0.709   1.062   2.234
  334SOL    HW1 1245   0.695   1.042   2.327
  334SOL    HW2 1246   0.784   1.009   2.209
  335SOL     OW 1247   0.432   0.811   3.107
  335SOL    HW1 1248   0.496   0.822   3.177
  335SOL    HW2 1249   0.394   0.724   3.124
  336SOL     OW 1250   1.258   0.374   3.155
  336SOL    HW1 1251   1.292   0.452   3.198
  336SOL    HW2 1252   1.168   0.397   3.131
  337SOL     OW 1253   0.067   1.565   3.190
  337SOL    HW1 1254   0.025   1.648   3.210
  337SOL    HW2 1255   0.160   1.581   3.205
  338SOL     OW 1256   0.336   1.115   2.354
  338SOL    HW1 1257   0.345   1.187   2.292
  338SOL    HW2 1258   0.334   1.037   2.300
  339SOL     OW 1259   0.548   0.536   2.723
  339SOL    HW1 1260   0.562   0.594   2.648
  339SOL    HW2 1261   0.617   0.559   2.786
  340SOL     OW 1262   1.246   1.350   2.254
  340SOL    HW1 1263   1.302   1.421   2.286
  340SOL    HW2 1264   1.159   1.372   2.287
  341SOL     OW 1265   1.292   1.462   3.010
  341SOL    HW1 1266   1.347   1.467   3.089
  341SOL    HW2 1267   1.237   1.385   3.025
  342SOL     OW 1268   1.570   0.621   2.349
  342SOL    HW1 1269   1.522   0.674   2.413
  342SOL    HW2 1270   1.620   0.684   2.297
  343SOL     OW 1271   0.348   1.535   3.170
  343SOL    HW1 1272   0.334   1.487   3.088
  343SOL    HW2 1273   0.443   1.545   3.176
  344SOL     OW 1274   0.431   0.731   3.465
  344SOL    HW1 1275   0.488   0.782   3.407
  344SOL    HW2 1276   0.479   0.650   3.481
  345SOL     OW 1277   1.612   0.783   3.551
  345SOL    HW1 1278   1.525   0.823   3.544
  345SOL    HW2 1279   1.663   0.824   3.481
  346SOL     OW 1280   1.000   0.133   3.592
  346SOL    HW1 1281   1.043   0.162   3.511
  346SOL    HW2 1282   0.997   0.038   3.584
  347SOL     OW 1283   0.471   0.034   3.626
  347SOL    HW1 1284   0.404   6.966   3.622
  347SOL    HW2 1285   0.423   0.116   3.632
  348SOL     OW 1286   0.591   0.876   2.891
  348SOL    HW1 1287   0.622   0.967   2.895
  348SOL    HW2 1288   0.535   0.866   2.967
  349SOL     OW 1289   1.343   0.858   2.880
  349SOL    HW1 1290   1.255   0.841   2.846
  349SOL    HW2 1291   1.390   0.776   2.871
  350SOL     OW 1292   1.199   0.528   2.123
  350SOL    HW1 1293   1.208   0.450   2.178
  350SOL    HW2 1294   1.156   0.592   2.179
  351SOL     OW 1295   0.320   0.209   3.110
  351SOL    HW1 1296   0.266   0.224   3.188
  351SOL    HW2 1297   0.295   0.121   3.081
  352SOL     OW 1298   0.089   1.307   3.121
  352SOL    HW1 1299   0.102   1.249   3.196
  352SOL    HW2 1300   0.084   1.395   3.158
  353SOL     OW 1301   0.725   0.634   2.912
  353SOL    HW1 1302   0.800   0.621   2.855
  353SOL    HW2 1303   0.695   0.722   2.893
  354SOL     OW 1304   1.742   0.960   3.723
  354SOL    HW1 1305   1.699   0.892   3.670
  354SOL    HW2 1306   1.680   0.979   3.793
  355SOL     OW 1307   0.354   0.066   2.486
  355SOL    HW1 1308   0.315   0.144   2.527
  355SOL    HW2 1309   0.297   6.994   2.513
  356SOL     OW 1310   1.622   0.397   2.198
  356SOL    HW1 1311   1.651   0.324   2.254
  356SOL    HW2 1312   1.593   0.464   2.260
  357SOL     OW 1313   1.032   0.759   2.820
  357SOL    HW1 1314   1.021   0.776   2.913
  357SOL    HW2 1315   1.004   0.669   2.808
  358SOL     OW 1316   0.982   1.567   3.585
  358SOL    HW1 1317   0.965   1.610   3.501
  358SOL    HW2 1318   1.025   1.484   3.561
  359SOL     OW 1319   1.850   1.499   3.466
  359SOL    HW1 1320   1.872   1.528   3.377
  359SOL    HW2 1321   1.930   1.513   3.517
  360SOL     OW 1322   0.366   0.917   3.664
  360SOL    HW1 1323   0.443   0.940   3.716
  360SOL    HW2 1324   0.398   0.851   3.602
  361SOL     OW 1325   1.542   0.228   1.994
  361SOL    HW1 1326   1.447   0.228   2.007
  361SOL    HW2 1327   1.575   0.288   2.061
  362SOL     OW 1328   1.285   0.824   1.888
  362SOL    HW1 1329   1.327   0.738   1.893
  362SOL    HW2 1330   1.318   0.863   1.807
  363SOL     OW 1331   1.071   1.341   2.720
  363SOL    HW1 1332   1.076   1.269   2.657
  363SOL    HW2 1333   1.127   1.409   2.684
  364SOL     OW 1334   0.320   0.806   2.803
  364SOL    HW1 1335   0.414   0.826   2.802
  364SOL    HW2 1336   0.315   0.716   2.837
  365SOL     OW 1337   0.327   0.532   2.875
  365SOL    HW1 1338   0.287   0.447   2.857
  365SOL    HW2 1339   0.405   0.534   2.819
  366SOL     OW 1340   1.125   0.422   3.526
  366SOL    HW1 1341   1.082   0.457   3.604
  366SOL    HW2 1342   1.218   0.444   3.538
  367SOL     OW 1343   1.131   0.219   3.354
  367SOL    HW1 1344   1.131   0.296   3.411
  367SOL    HW2 1345   1.189   0.242   3.282
  368SOL     OW 1346   6.994   1.325   2.083
  368SOL    HW1 1347   6.924   1.346   2.145
  368SOL    HW2 1348   0.018   1.234   2.104
  369SOL     OW 1349   0.096   1.748   2.818
  369SOL    HW1 1350   0.081   1.678   2.755
  369SOL    HW2 1351   0.175   1.792   2.786
  370SOL     OW 1352   0.490   1.578   2.765
  370SOL    HW1 1353   0.559   1.640   2.789
  370SOL    HW2 1354   0.534   1.515   2.708
  371SOL     OW 1355   0.972   0.787   3.084
  371SOL    HW1 1356   1.031   0.767   3.157
  371SOL    HW2 1357   0.888   0.748   3.109
  372SOL     OW 1358   0.052   0.605   2.968
  372SOL    HW1 1359   0.134   0.573   2.930
  372SOL    HW2 1360   0.058   0.581   3.061
  373SOL     OW 1361   0.210   0.520   3.580
  373SOL    HW1 1362   0.298   0.491   3.554
  373SOL    HW2 1363   0.197   0.602   3.533
  374SOL     OW 1364   1.382   0.932   3.519
  374SOL    HW1 1365   1.403   1.025   3.515
  374SOL    HW2 1366   1.378   0.904   3.427
  375SOL     OW 1367   0.816   0.575   2.228
  375SOL    HW1 1368   0.825   0.499   2.170
  375SOL    HW2 1369   0.740   0.623   2.194
  376SOL     OW 1370   1.639   0.603   3.039
  376SOL    HW1 1371   1.627   0.543   3.113
  376SOL    HW2 1372   1.728   0.584   3.008
  377SOL     OW 1373   0.280   1.560   3.595
  377SOL    HW1 1374   0.228   1.620   3.648
  377SOL    HW2 1375   0.263   1.474   3.633
  378SOL     OW 1376   0.718   0.460   3.118
  378SOL    HW1 1377   0.665   0.385   3.091
  378SOL    HW2 1378   0.711   0.522   3.045
  379SOL     OW 1379   0.922   1.678   3.334
  379SOL    HW1 1380   0.897   1.637   3.251
  379SOL    HW2 1381   0.915   1.772   3.318
  380SOL     OW 1382   0.446   0.486   2.034
  380SOL    HW1 1383   0.503   0.561   2.050
  380SOL    HW2 1384   0.372   0.500   2.094
  381SOL     OW 1385   0.162   1.127   3.328
  381SOL    HW1 1386   0.152   1.066   3.400
  381SOL    HW2 1387   0.175   1.072   3.251
  382SOL     OW 1388   1.319   1.043   3.079
  382SOL    HW1 1389   1.339   0.979   3.011
  382SOL    HW2 1390   1.254   1.101   3.040
  383SOL     OW 1391   1.318   0.855   2.164
  383SOL    HW1 1392   1.243   0.826   2.216
  383SOL    HW2 1393   1.290   0.843   2.073
  384SOL     OW 1394   1.782   1.734   3.022
  384SOL    HW1 1395   1.841   1.760   2.952
  384SOL    HW2 1396   1.753   1.646   2.997
  385SOL     OW 1397   1.239   1.732   2.965
  385SOL    HW1 1398   1.322   1.757   2.925
  385SOL    HW2 1399   1.250   1.640   2.987
  386SOL     OW 1400   0.066   1.237   2.862
  386SOL    HW1 1401   0.082   1.259   2.954
  386SOL    HW2 1402   6.970   1.230   2.856
  387SOL     OW 1403   0.681   1.673   3.603
  387SOL    HW1 1404   0.619   1.745   3.595
  387SOL    HW2 1405   0.748   1.692   3.538
  388SOL     OW 1406   1.708   0.175   2.332
  388SOL    HW1 1407   1.788   0.156   2.282
  388SOL    HW2 1408   1.711   0.113   2.405
  389SOL     OW 1409   1.394   1.568   2.355
  389SOL    HW1 1410   1.451   1.602   2.286
  389SOL    HW2 1411   1.342   1.643   2.383
  390SOL     OW 1412   0.140   1.787   3.716
  390SOL    HW1 1413   0.099   1.718   3.769
  390SOL    HW2 1414   0.188   1.840   3.780
  391SOL     OW 1415   1.278   0.929   2.532
  391SOL    HW1 1416   1.352   0.870   2.544
  391SOL    HW2 1417   1.313   1.001   2.478
  392SOL     OW 1418   0.802   1.278   3.284
  392SOL    HW1 1419   0.775   1.321   3.366
  392SOL    HW2 1420   0.730   1.297   3.223
  393SOL     OW 1421   0.674   1.630   2.017
  393SOL    HW1 1422   0.685   1.645   1.924
  393SOL    HW2 1423   0.619   1.552   2.023
  394SOL     OW 1424   1.618   1.728   3.255
  394SOL    HW1 1425   1.673   1.732   3.176
  394SOL    HW2 1426   1.604   1.820   3.279
  395SOL     OW 1427   1.871   0.159   2.814
  395SOL    HW1 1428   1.858   0.065   2.820
  395SOL    HW2 1429   1.783   0.195   2.801
  396SOL     OW 1430   0.289   0.337   2.580
  396SOL    HW1 1431   0.203   0.370   2.554
  396SOL    HW2 1432   0.279   0.313   2.672
  397SOL     OW 1433   1.209   1.600   1.896
  397SOL    HW1 1434   1.197   1.508   1.922
  397SOL    HW2 1435   1.142   1.614   1.828
  398SOL     OW 1436   0.823   1.009   3.238
  398SOL    HW1 1437   0.866   1.001   3.153
  398SOL    HW2 1438   0.819   1.103   3.255
  399SOL     OW 1439   0.915   0.910   2.154
  399SOL    HW1 1440   0.974   0.943   2.087
  399SOL    HW2 1441   0.966   0.843   2.200
  400SOL     OW 1442   1.488   1.630   1.908
  400SOL    HW1 1443   1.395   1.619   1.893
  400SOL    HW2 1444   1.527   1.636   1.821
  401SOL     OW 1445   0.374   1.309   3.353
  401SOL    HW1 1446   0.358   1.385   3.298
  401SOL    HW2 1447   0.306   1.246   3.327
  402SOL     OW 1448   1.608   1.286   3.142
  402SOL    HW1 1449   1.664   1.267   3.216
  402SOL    HW2 1450   1.547   1.352   3.174
  403SOL     OW 1451   1.064   1.112   2.575
  403SOL    HW1 1452   0.991   1.062   2.611
  403SOL    HW2 1453   1.127   1.045   2.549
  404SOL     OW 1454   1.028   0.248   2.808
  404SOL    HW1 1455   1.005   0.196   2.731
  404SOL    HW2 1456   1.013   0.189   2.882
  405SOL     OW 1457   0.610   1.490   2.344
  405SOL    HW1 1458   0.658   1.440   2.278
  405SOL    HW2 1459   0.528   1.515   2.301
  406SOL     OW 1460   1.730   0.389   3.239
  406SOL    HW1 1461   1.800   0.454   3.244
  406SOL    HW2 1462   1.768   0.317   3.187
  407SOL     OW 1463   0.263   1.349   2.134
  407SOL    HW1 1464   0.168   1.355   2.124
  407SOL    HW2 1465   0.280   1.384   2.221
  408SOL     OW 1466   0.122   0.972   3.562
  408SOL    HW1 1467   0.074   1.022   3.628
  408SOL    HW2 1468   0.208   0.957   3.601
  409SOL     OW 1469   0.666   0.242   3.374
  409SOL    HW1 1470   0.744   0.218   3.323
  409SOL    HW2 1471   0.701   0.271   3.458
  410SOL     OW 1472   0.076   0.310   1.918
  410SOL    HW1 1473   6.990   0.269   1.908
  410SOL    HW2 1474   0.067   0.396   1.879
  411SOL     OW 1475   1.425   0.859   3.259
  411SOL    HW1 1476   1.374   0.919   3.204
  411SOL    HW2 1477   1.513   0.861   3.221
  412SOL     OW 1478   0.044   0.196   2.178
  412SOL    HW1 1479   0.062   0.247   2.099
  412SOL    HW2 1480   0.069   0.107   2.154
  413SOL     OW 1481   1.178   1.333   1.980
  413SOL    HW1 1482   1.085   1.307   1.980
  413SOL    HW2 1483   1.202   1.334   2.072
  414SOL     OW 1484   0.622   0.833   3.298
  414SOL    HW1 1485   0.678   0.909   3.283
  414SOL    HW2 1486   0.684   0.760   3.307
  415SOL     OW 1487   1.482   1.788   2.846
  415SOL    HW1 1488   1.504   1.855   2.781
  415SOL    HW2 1489   1.567   1.758   2.879
  416SOL     OW 1490   0.712   0.559   3.568
  416SOL    HW1 1491   0.760   0.621   3.622
  416SOL    HW2 1492   0.733   0.473   3.604
  417SOL     OW 1493   1.474   1.192   3.489
  417SOL    HW1 1494   1.462   1.209   3.583
  417SOL    HW2 1495   1.565   1.213   3.473
  418SOL     OW 1496   0.368   1.752   3.424
  418SOL    HW1 1497   0.281   1.790   3.409
  418SOL    HW2 1498   0.350   1.671   3.471
  419SOL     OW 1499   1.663   0.879   3.117
  419SOL    HW1 1500   1.659   0.794   3.074
  419SOL    HW2 1501   1.653   0.942   3.046
  420SOL     OW 1502   1.221   0.322   2.313
  420SOL    HW1 1503   1.290   0.256   2.308
  420SOL    HW2 1504   1.242   0.373   2.392
  421SOL     OW 1505   0.588   0.735   2.535
  421SOL    HW1 1506   0.627   0.822   2.523
  421SOL    HW2 1507   0.525   0.727   2.464
  422SOL     OW 1508   1.749   0.368   3.513
  422SOL    HW1 1509   1.740   0.381   3.418
  422SOL    HW2 1510   1.678   0.308   3.536
  423SOL     OW 1511   1.752   0.933   3.372
  423SOL    HW1 1512   1.736   1.027   3.385
  423SOL    HW2 1513   1.731   0.918   3.279
  424SOL     OW 1514   0.869   1.364   1.909
  424SOL    HW1 1515   0.827   1.391   1.991
  424SOL    HW2 1516   0.880   1.445   1.860
  425SOL     OW 1517   0.665   1.783   2.799
  425SOL    HW1 1518   0.647   1.875   2.779
  425SOL    HW2 1519   0.760   1.775   2.792
  426SOL     OW 1520   0.870   0.973   2.715
  426SOL    HW1 1521   0.920   0.900   2.753
  426SOL    HW2 1522   0.829   1.015   2.791
  427SOL     OW 1523   1.074   0.985   1.950
  427SOL    HW1 1524   1.054   1.039   1.874
  427SOL    HW2 1525   1.149   0.932   1.923
  428SOL     OW 1526   1.844   1.553   2.703
  428SOL    HW1 1527   1.765   1.542   2.650
  428SOL    HW2 1528   1.834   1.491   2.775
  429SOL     OW 1529   0.237   1.307   3.726
  429SOL    HW1 1530   0.148   1.271   3.720
  429SOL    HW2 1531   0.251   1.317   3.820
  430SOL     OW 1532   0.151   1.283   2.562
  430SOL    HW1 1533   0.116   1.239   2.639
  430SOL    HW2 1534   0.178   1.213   2.504
  431SOL     OW 1535   0.689   1.410   3.496
  431SOL    HW1 1536   0.609   1.367   3.526
  431SOL    HW2 1537   0.685   1.498   3.532
  432SOL     OW 1538   1.851   0.190   3.101
  432SOL    HW1 1539   1.781   0.129   3.080
  432SOL    HW2 1540   1.885   0.217   3.015
  433SOL     OW 1541   0.457   0.435   2.385
  433SOL    HW1 1542   0.486   0.357   2.338
  433SOL    HW2 1543   0.410   0.402   2.461
  434SOL     OW 1544   1.697   1.485   2.952
  434SOL    HW1 1545   1.618   1.466   2.901
  434SOL    HW2 1546   1.699   1.416   3.018
  435SOL     OW 1547   0.335   0.558   3.155
  435SOL    HW1 1548   0.390   0.504   3.211
  435SOL    HW2 1549   0.353   0.527   3.066
  436SOL     OW 1550   0.833   1.580   2.535
  436SOL    HW1 1551   0.810   1.646   2.471
  436SOL    HW2 1552   0.758   1.520   2.536
  437SOL     OW 1553   1.408   0.214   2.993
  437SOL    HW1 1554   1.485   0.176   3.035
  437SOL    HW2 1555   1.362   0.259   3.064
  438SOL     OW 1556   0.971   0.060   2.998
  438SOL    HW1 1557   0.920   6.996   2.948
  438SOL    HW2 1558   1.023   0.007   3.059
  439SOL     OW 1559   0.775   1.333   2.185
  439SOL    HW1 1560   0.749   1.241   2.193
  439SOL    HW2 1561   0.856   1.340   2.234
  440SOL     OW 1562   0.622   1.556   3.150
  440SOL    HW1 1563   0.621   1.639   3.199
  440SOL    HW2 1564   0.710   1.551   3.113
  441SOL     OW 1565   1.323   0.012   2.059
  441SOL    HW1 1566   1.362   6.943   2.005
  441SOL    HW2 1567   1.249   6.970   2.103
  442SOL     OW 1568   1.266   0.453   2.546
  442SOL    HW1 1569   1.223   0.538   2.546
  442SOL    HW2 1570   1.285   0.436   2.638
  443SOL     OW 1571   1.623   0.260   2.780
  443SOL    HW1 1572   1.535   0.238   2.812
  443SOL    HW2 1573   1.608   0.318   2.706
  444SOL     OW 1574   0.065   1.064   2.141
  444SOL    HW1 1575   0.153   1.027   2.142
  444SOL    HW2 1576   0.007   0.990   2.159
  445SOL     OW 1577   0.891   1.663   2.199
  445SOL    HW1 1578   0.816   1.648   2.141
  445SOL    HW2 1579   0.863   1.734   2.256
  446SOL     OW 1580   0.170   0.651   3.846
  446SOL    HW1 1581   0.170   0.589   3.919
  446SOL    HW2 1582   0.215   0.604   3.776
  447SOL     OW 1583   0.217   0.289   4.707
  447SOL    HW1 1584   0.271   0.243   4.771
  447SOL    HW2 1585   0.128   0.261   4.726
  448SOL     OW 1586   6.999   0.390   4.378
  448SOL    HW1 1587   6.944   0.402   4.456
  448SOL    HW2 1588   0.024   0.297   4.380
  449SOL     OW 1589   0.570   1.299   4.912
  449SOL    HW1 1590   0.485   1.305   4.868
  449SOL    HW2 1591   0.586   1.388   4.944
  450SOL     OW 1592   1.574   1.515   4.433
  450SOL    HW1 1593   1.530   1.491   4.515
  450SOL    HW2 1594   1.504   1.519   4.368
  451SOL     OW 1595   1.133   0.700   4.418
  451SOL    HW1 1596   1.181   0.782   4.406
  451SOL    HW2 1597   1.085   0.713   4.500
  452SOL     OW 1598   1.780   0.600   3.947
  452SOL    HW1 1599   1.754   0.597   3.855
  452SOL    HW2 1600   1.739   0.524   3.987
  453SOL     OW 1601   0.741   1.136   4.772
  453SOL    HW1 1602   0.677   1.175   4.831
  453SOL    HW2 1603   0.782   1.211   4.729
  454SOL     OW 1604   0.875   0.761   5.548
  454SOL    HW1 1605   0.868   0.831   5.612
  454SOL    HW2 1606   0.897   0.805   5.466
  455SOL     OW 1607   0.685   0.998   4.369
  455SOL    HW1 1608   0.752   0.991   4.437
  455SOL    HW2 1609   0.616   1.053   4.408
  456SOL     OW 1610   0.715   1.148   5.546
  456SOL    HW1 1611   0.764   1.225   5.577
  456SOL    HW2 1612   0.637   1.185   5.504
  457SOL     OW 1613   0.338   1.416   4.789
  457SOL    HW1 1614   0.264   1.380   4.741
  457SOL    HW2 1615   0.383   1.473   4.727
  458SOL     OW 1616   1.459   1.503   5.087
  458SOL    HW1 1617   1.513   1.581   5.097
  458SOL    HW2 1618   1.389   1.514   5.152
  459SOL     OW 1619   0.449   0.408   5.217
  459SOL    HW1 1620   0.531   0.358   5.219
  459SOL    HW2 1621   0.380   0.342   5.227
  460SOL     OW 1622   1.613   0.456   4.451
  460SOL    HW1 1623   1.562   0.487   4.375
  460SOL    HW2 1624   1.609   0.529   4.513
  461SOL     OW 1625   0.223   1.709   4.191
  461SOL    HW1 1626   0.241   1.786   4.244
  461SOL    HW2 1627   0.290   1.710   4.123
  462SOL     OW 1628   1.138   1.343   5.418
  462SOL    HW1 1629   1.179   1.336   5.505
  462SOL    HW2 1630   1.086   1.263   5.410
  463SOL     OW 1631   0.286   1.443   4.242
  463SOL    HW1 1632   0.258   1.534   4.249
  463SOL    HW2 1633   0.241   1.398   4.314
  464SOL     OW 1634   0.273   1.084   4.626
  464SOL    HW1 1635   0.268   0.992   4.654
  464SOL    HW2 1636   0.200   1.126   4.672
  465SOL     OW 1637   0.602   1.793   5.151
  465SOL    HW1 1638   0.519   1.776   5.195
  465SOL    HW2 1639   0.627   1.882   5.178
  466SOL     OW 1640   0.576   0.986   3.865
  466SOL    HW1 1641   0.627   1.031   3.797
  466SOL    HW2 1642   0.614   1.017   3.947
  467SOL     OW 1643   1.573   0.128   5.162
  467SOL    HW1 1644   1.599   0.217   5.138
  467SOL    HW2 1645   1.584   0.125   5.258
  468SOL     OW 1646   0.135   0.618   4.290
  468SOL    HW1 1647   0.077   0.548   4.319
  468SOL    HW2 1648   0.119   0.689   4.352
  469SOL     OW 1649   1.844   1.752   4.052
  469SOL    HW1 1650   1.913   1.728   4.114
  469SOL    HW2 1651   1.860   1.844   4.033
  470SOL     OW 1652   0.036   1.593   3.872
  470SOL    HW1 1653   0.027   1.499   3.886
  470SOL    HW2 1654   6.953   1.630   3.903
  471SOL     OW 1655   1.689   0.919   4.370
  471SOL    HW1 1656   1.772   0.874   4.348
  471SOL    HW2 1657   1.668   0.970   4.292
  472SOL     OW 1658   1.651   1.102   4.154
  472SOL    HW1 1659   1.738   1.102   4.113
  472SOL    HW2 1660   1.658   1.166   4.225
  473SOL     OW 1661   0.151   0.735   5.292
  473SOL    HW1 1662   0.245   0.748   5.279
  473SOL    HW2 1663   0.120   0.820   5.325
  474SOL     OW 1664   0.616   1.392   4.461
  474SOL    HW1 1665   0.571   1.308   4.470
  474SOL    HW2 1666   0.600   1.418   4.370
  475SOL     OW 1667   1.284   1.235   5.144
  475SOL    HW1 1668   1.314   1.166   5.084
  475SOL    HW2 1669   1.344   1.229   5.218
  476SOL     OW 1670   0.840   0.024   4.244
  476SOL    HW1 1671   0.872   0.112   4.223
  476SOL    HW2 1672   0.744   0.033   4.242
  477SOL     OW 1673   0.202   0.959   4.986
  477SOL    HW1 1674   0.283   0.911   4.968
  477SOL    HW2 1675   0.141   0.929   4.919
  478SOL     OW 1676   1.531   1.001   3.925
  478SOL    HW1 1677   1.462   0.943   3.957
  478SOL    HW2 1678   1.574   1.034   4.003
  479SOL     OW 1679   1.183   1.815   5.351
  479SOL    HW1 1680   1.188   1.877   5.278
  479SOL    HW2 1681   1.201   1.730   5.312
  480SOL     OW 1682   0.326   0.264   5.532
  480SOL    HW1 1683   0.378   0.330   5.579
  480SOL    HW2 1684   0.241   0.266   5.574
  481SOL     OW 1685   1.468   1.419   4.669
  481SOL    HW1 1686   1.402   1.435   4.736
  481SOL    HW2 1687   1.454   1.328   4.644
  482SOL     OW 1688   1.652   1.758   4.299
  482SOL    HW1 1689   1.633   1.723   4.212
  482SOL    HW2 1690   1.635   1.685   4.359
  483SOL     OW 1691   0.587   0.711   3.985
  483SOL    HW1 1692   0.597   0.798   3.947
  483SOL    HW2 1693   0.529   0.725   4.060
  484SOL     OW 1694   1.283   0.375   4.675
  484SOL    HW1 1695   1.191   0.350   4.682
  484SOL    HW2 1696   1.327   0.322   4.742
  485SOL     OW 1697   1.578   1.674   4.035
  485SOL    HW1 1698   1.670   1.698   4.027
  485SOL    HW2 1699   1.549   1.657   3.946
  486SOL     OW 1700   0.792   0.623   5.179
  486SOL    HW1 1701   0.765   0.592   5.265
  486SOL    HW2 1702   0.760   0.555   5.119
  487SOL     OW 1703   1.396   0.480   5.404
  487SOL    HW1 1704   1.400   0.520   5.491
  487SOL    HW2 1705   1.449   0.400   5.412
  488SOL     OW 1706   0.949   0.885   5.311
  488SOL    HW1 1707   1.004   0.817   5.271
  488SOL    HW2 1708   0.900   0.922   5.237
  489SOL     OW 1709   0.994   0.414   4.954
  489SOL    HW1 1710   0.907   0.434   4.989
  489SOL    HW2 1711   0.978   0.370   4.871
  490SOL     OW 1712   1.055   0.698   4.148
  490SOL    HW1 1713   1.073   0.693   4.242
  490SOL    HW2 1714   0.970   0.655   4.137
  491SOL     OW 1715   0.097   0.814   4.500
  491SOL    HW1 1716   0.187   0.811   4.532
  491SOL    HW2 1717   0.045   0.836   4.577
  492SOL     OW 1718   0.109   1.868   5.317
  492SOL    HW1 1719   0.125   1.845   5.409
  492SOL    HW2 1720   0.017   1.845   5.302
  493SOL     OW 1721   0.889   0.356   3.924
  493SOL    HW1 1722   0.936   0.411   3.861
  493SOL    HW2 1723   0.858   0.282   3.872
  494SOL     OW 1724   1.702   0.569   5.554
  494SOL    HW1 1725   1.668   0.644   5.505
  494SOL    HW2 1726   1.726   0.506   5.487
  495SOL     OW 1727   1.382   1.142   4.263
  495SOL    HW1 1728   1.462   1.132   4.211
  495SOL    HW2 1729   1.329   1.204   4.214
  496SOL     OW 1730   0.503   0.194   4.632
  496SOL    HW1 1731   0.548   0.224   4.711
  496SOL    HW2 1732   0.523   0.260   4.566
  497SOL     OW 1733   0.998   1.444   4.191
  497SOL    HW1 1734   0.969   1.520   4.141
  497SOL    HW2 1735   0.973   1.465   4.281
  498SOL     OW 1736   0.353   1.820   4.591
  498SOL    HW1 1737   0.394   1.734   4.602
  498SOL    HW2 1738   0.423   1.883   4.613
  499SOL     OW 1739   1.801   1.050   4.597
  499SOL    HW1 1740   1.749   1.031   4.520
  499SOL    HW2 1741   1.737   1.057   4.668
  500SOL     OW 1742   1.226   1.541   5.237
  500SOL    HW1 1743   1.215   1.469   5.299
  500SOL    HW2 1744   1.157   1.529   5.173
  501SOL     OW 1745   0.312   0.947   3.977
  501SOL    HW1 1746   0.395   0.967   3.933
  501SOL    HW2 1747   0.287   0.861   3.942
  502SOL     OW 1748   1.482   0.752   4.446
  502SOL    HW1 1749   1.478   0.713   4.534
  502SOL    HW2 1750   1.559   0.808   4.447
  503SOL     OW 1751   0.474   1.266   5.459
  503SOL    HW1 1752   0.448   1.274   5.368
  503SOL    HW2 1753   0.392   1.265   5.508
  504SOL     OW 1754   1.126   1.778   3.952
  504SOL    HW1 1755   1.049   1.740   3.995
  504SOL    HW2 1756   1.150   1.714   3.885
  505SOL     OW 1757   0.203   0.274   5.245
  505SOL    HW1 1758   0.152   0.355   5.246
  505SOL    HW2 1759   0.217   0.253   5.337
  506SOL     OW 1760   1.629   1.383   3.816
  506SOL    HW1 1761   1.588   1.468   3.801
  506SOL    HW2 1762   1.561   1.319   3.794
  507SOL     OW 1763   0.465   1.737   4.040
  507SOL    HW1 1764   0.510   1.789   4.106
  507SOL    HW2 1765   0.535   1.701   3.986
  508SOL     OW 1766   1.425   0.140   4.150
  508SOL    HW1 1767   1.412   0.092   4.068
  508SOL    HW2 1768   1.519   0.142   4.162
  509SOL     OW 1769   0.256   1.793   4.947
  509SOL    HW1 1770   0.303   1.718   4.984
  509SOL    HW2 1771   0.212   1.757   4.870
  510SOL     OW 1772   0.940   1.701   4.619
  510SOL    HW1 1773   1.019   1.652   4.642
  510SOL    HW2 1774   0.900   1.649   4.548
  511SOL     OW 1775   0.402   0.692   4.193
  511SOL    HW1 1776   0.426   0.601   4.210
  511SOL    HW2 1777   0.309   0.697   4.217
  512SOL     OW 1778   1.523   0.228   5.446
  512SOL    HW1 1779   1.543   0.229   5.540
  512SOL    HW2 1780   1.434   0.193   5.442
  513SOL     OW 1781   0.655   0.112   3.824
  513SOL    HW1 1782   0.689   0.040   3.876
  513SOL    HW2 1783   0.592   0.072   3.764
  514SOL     OW 1784   0.767   0.280   5.491
  514SOL    HW1 1785   0.851   0.235   5.483
  514SOL    HW2 1786   0.719   0.230   5.557
  515SOL     OW 1787   0.877   1.524   4.918
  515SOL    HW1 1788   0.858   1.485   4.833
  515SOL    HW2 1789   0.945   1.469   4.956
  516SOL     OW 1790   1.340   0.592   5.159
  516SOL    HW1 1791   1.371   0.562   5.244
  516SOL    HW2 1792   1.377   0.680   5.150
  517SOL     OW 1793   0.819   1.387   4.672
  517SOL    HW1 1794   0.904   1.377   4.629
  517SOL    HW2 1795   0.757   1.396   4.600
  518SOL     OW 1796   0.931   0.513   4.620
  518SOL    HW1 1797   0.903   0.506   4.529
  518SOL    HW2 1798   0.960   0.424   4.642
  519SOL     OW 1799   0.577   0.063   4.206
  519SOL    HW1 1800   0.503   0.056   4.266
  519SOL    HW2 1801   0.553   0.134   4.146
  520SOL     OW 1802   1.428   1.202   3.762
  520SOL    HW1 1803   1.457   1.127   3.814
  520SOL    HW2 1804   1.343   1.225   3.799
  521SOL     OW 1805   0.316   0.045   3.925
  521SOL    HW1 1806   0.342   0.137   3.926
  521SOL    HW2 1807   0.366   0.005   3.996
  522SOL     OW 1808   0.949   0.269   4.179
  522SOL    HW1 1809   0.924   0.300   4.092
  522SOL    HW2 1810   1.044   0.279   4.181
  523SOL     OW 1811   1.082   0.687   5.179
  523SOL    HW1 1812   1.019   0.616   5.193
  523SOL    HW2 1813   1.167   0.643   5.177
  524SOL     OW 1814   1.218   1.573   4.519
  524SOL    HW1 1815   1.232   1.638   4.450
  524SOL    HW2 1816   1.287   1.591   4.582
  525SOL     OW 1817   0.472   1.154   4.454
  525SOL    HW1 1818   0.408   1.132   4.522
  525SOL    HW2 1819   0.425   1.140   4.371
  526SOL     OW 1820   1.262   1.791   4.337
  526SOL    HW1 1821   1.311   1.854   4.283
  526SOL    HW2 1822   1.193   1.844   4.378
  527SOL     OW 1823   1.020   0.533   3.757
  527SOL    HW1 1824   0.978   0.617   3.737
  527SOL    HW2 1825   1.086   0.555   3.823
  528SOL     OW 1826   0.078   0.541   5.103
  528SOL    HW1 1827   0.170   0.543   5.076
  528SOL    HW2 1828   0.071   0.612   5.167
  529SOL     OW 1829   0.579   0.243   4.896
  529SOL    HW1 1830   0.621   0.168   4.938
  529SOL    HW2 1831   0.487   0.237   4.922
  530SOL     OW 1832   0.865   0.465   4.361
  530SOL    HW1 1833   0.817   0.520   4.298
  530SOL    HW2 1834   0.890   0.388   4.311
  531SOL     OW 1835   0.967   0.022   4.496
  531SOL    HW1 1836   0.914   0.025   4.417
  531SOL    HW2 1837   1.025   6.946   4.484
  532SOL     OW 1838   1.440   1.159   4.581
  532SOL    HW1 1839   1.368   1.096   4.583
  532SOL    HW2 1840   1.462   1.167   4.488
  533SOL     OW 1841   1.465   0.612   4.689
  533SOL    HW1 1842   1.409   0.534   4.694
  533SOL    HW2 1843   1.524   0.604   4.764
  534SOL     OW 1844   1.839   0.810   4.110
  534SOL    HW1 1845   1.898   0.762   4.168
  534SOL    HW2 1846   1.816   0.747   4.042
  535SOL     OW 1847   0.500   1.424   3.871
  535SOL    HW1 1848   0.422   1.398   3.919
  535SOL    HW2 1849   0.491   1.383   3.785
  536SOL     OW 1850   1.680   1.265   4.364
  536SOL    HW1 1851   1.774   1.264   4.380
  536SOL    HW2 1852   1.653   1.354   4.387
  537SOL     OW 1853   1.395   0.574   3.797
  537SOL    HW1 1854   1.332   0.552   3.866
  537SOL    HW2 1855   1.481   0.561   3.838
  538SOL     OW 1856   0.517   0.254   4.019
  538SOL    HW1 1857   0.577   0.214   3.956
  538SOL    HW2 1858   0.498   0.340   3.982
  539SOL     OW 1859   1.747   1.243   5.282
  539SOL    HW1 1860   1.834   1.205   5.273
  539SOL    HW2 1861   1.762   1.332   5.312
  540SOL     OW 1862   1.053   1.353   5.054
  540SOL    HW1 1863   0.977   1.322   5.104
  540SOL    HW2 1864   1.128   1.311   5.097
  541SOL     OW 1865   1.609   1.628   5.383
  541SOL    HW1 1866   1.601   1.663   5.295
  541SOL    HW2 1867   1.690   1.578   5.382
  542SOL     OW 1868   1.137   1.213   4.825
  542SOL    HW1 1869   1.077   1.250   4.889
  542SOL    HW2 1870   1.108   1.248   4.741
  543SOL     OW 1871   1.622   1.095   4.799
  543SOL    HW1 1872   1.615   1.158   4.871
  543SOL    HW2 1873   1.547   1.115   4.743
  544SOL     OW 1874   0.888   0.150   5.115
  544SOL    HW1 1875   0.908   0.121   5.025
  544SOL    HW2 1876   0.973   0.174   5.152
  545SOL     OW 1877   0.985   1.115   5.447
  545SOL    HW1 1878   0.894   1.132   5.471
  545SOL    HW2 1879   0.981   1.036   5.393
  546SOL     OW 1880   0.709   1.062   4.096
  546SOL    HW1 1881   0.695   1.042   4.189
  546SOL    HW2 1882   0.784   1.009   4.071
  547SOL     OW 1883   0.432   0.811   4.969
  547SOL    HW1 1884   0.496   0.822   5.039
  547SOL    HW2 1885   0.394   0.724   4.986
  548SOL     OW 1886   1.258   0.374   5.016
  548SOL    HW1 1887   1.292   0.452   5.060
  548SOL    HW2 1888   1.168   0.397   4.993
  549SOL     OW 1889   0.067   1.564   5.050
  549SOL    HW1 1890   0.023   1.646   5.076
  549SOL    HW2 1891   0.159   1.581   5.067
  550SOL     OW 1892   0.336   1.115   4.216
  550SOL    HW1 1893   0.345   1.187   4.154
  550SOL    HW2 1894   0.333   1.036   4.162
  551SOL     OW 1895   0.548   0.536   4.585
  551SOL    HW1 1896   0.562   0.594   4.510
  551SOL    HW2 1897   0.617   0.559   4.647
  552SOL     OW 1898   1.246   1.350   4.115
  552SOL    HW1 1899   1.302   1.421   4.148
  552SOL    HW2 1900   1.159   1.372   4.148
  553SOL     OW 1901   1.292   1.462   4.873
  553SOL    HW1 1902   1.347   1.468   4.951
  553SOL    HW2 1903   1.237   1.385   4.888
  554SOL     OW 1904   1.570   0.621   4.211
  554SOL    HW1 1905   1.522   0.674   4.275
  554SOL    HW2 1906   1.620   0.685   4.160
  555SOL     OW 1907   0.348   1.535   5.032
  555SOL    HW1 1908   0.334   1.487   4.950
  555SOL    HW2 1909   0.443   1.545   5.039
  556SOL     OW 1910   0.431   0.731   5.327
  556SOL    HW1 1911   0.488   0.782   5.269
  556SOL    HW2 1912   0.480   0.650   5.343
  557SOL     OW 1913   1.611   0.783   5.413
  557SOL    HW1 1914   1.525   0.823   5.406
  557SOL    HW2 1915   1.663   0.824   5.344
  558SOL     OW 1916   1.001   0.133   5.454
  558SOL    HW1 1917   1.043   0.163   5.374
  558SOL    HW2 1918   0.997   0.038   5.446
  559SOL     OW 1919   0.472   0.034   5.488
  559SOL    HW1 1920   0.404   6.966   5.483
  559SOL    HW2 1921   0.423   0.116   5.494
  560SOL     OW 1922   0.591   0.876   4.753
  560SOL    HW1 1923   0.622   0.967   4.757
  560SOL    HW2 1924   0.535   0.866   4.829
  561SOL     OW 1925   1.343   0.859   4.742
  561SOL    HW1 1926   1.255   0.840   4.708
  561SOL    HW2 1927   1.390   0.776   4.733
  562SOL     OW 1928   1.199   0.528   3.985
  562SOL    HW1 1929   1.208   0.450   4.039
  562SOL    HW2 1930   1.156   0.592   4.041
  563SOL     OW 1931   0.320   0.209   4.972
  563SOL    HW1 1932   0.266   0.224   5.050
  563SOL    HW2 1933   0.295   0.121   4.943
  564SOL     OW 1934   0.090   1.307   4.982
  564SOL    HW1 1935   0.102   1.249   5.058
  564SOL    HW2 1936   0.085   1.395   5.019
  565SOL     OW 1937   0.725   0.634   4.774
  565SOL    HW1 1938   0.800   0.621   4.717
  565SOL    HW2 1939   0.695   0.723   4.755
  566SOL     OW 1940   1.742   0.960   5.585
  566SOL    HW1 1941   1.698   0.892   5.533
  566SOL    HW2 1942   1.680   0.979   5.656
  567SOL     OW 1943   0.354   0.066   4.348
  567SOL    HW1 1944   0.315   0.144   4.388
  567SOL    HW2 1945   0.297   6.994   4.375
  568SOL     OW 1946   1.622   0.397   4.060
  568SOL    HW1 1947   1.651   0.325   4.116
  568SOL    HW2 1948   1.593   0.464   4.121
  569SOL     OW 1949   1.032   0.759   4.682
  569SOL    HW1 1950   1.021   0.776   4.775
  569SOL    HW2 1951   1.004   0.669   4.670
  570SOL     OW 1952   0.982   1.566   5.447
  570SOL    HW1 1953   0.965   1.610   5.363
  570SOL    HW2 1954   1.025   1.484   5.423
  571SOL     OW 1955   1.849   1.500   5.328
  571SOL    HW1 1956   1.872   1.528   5.239
  571SOL    HW2 1957   1.929   1.513   5.378
  572SOL     OW 1958   0.366   0.917   5.526
  572SOL    HW1 1959   0.443   0.940   5.578
  572SOL    HW2 1960   0.398   0.851   5.464
  573SOL     OW 1961   1.541   0.228   3.856
  573SOL    HW1 1962   1.447   0.229   3.869
  573SOL    HW2 1963   1.575   0.288   3.923
  574SOL     OW 1964   1.285   0.824   3.751
  574SOL    HW1 1965   1.327   0.738   3.755
  574SOL    HW2 1966   1.318   0.863   3.669
  575SOL     OW 1967   1.070   1.341   4.582
  575SOL    HW1 1968   1.076   1.269   4.519
  575SOL    HW2 1969   1.127   1.409   4.546
  576SOL     OW 1970   0.320   0.806   4.665
  576SOL    HW1 1971   0.414   0.826   4.664
  576SOL    HW2 1972   0.315   0.716   4.699
  577SOL     OW 1973   0.327   0.532   4.737
  577SOL    HW1 1974   0.287   0.447   4.719
  577SOL    HW2 1975   0.405   0.534   4.681
  578SOL     OW 1976   1.125   0.423   5.388
  578SOL    HW1 1977   1.082   0.457   5.466
  578SOL    HW2 1978   1.218   0.444   5.400
  579SOL     OW 1979   1.131   0.219   5.216
  579SOL    HW1 1980   1.131   0.297   5.272
  579SOL    HW2 1981   1.189   0.242   5.144
  580SOL     OW 1982   6.994   1.325   3.945
  580SOL    HW1 1983   6.924   1.346   4.007
  580SOL    HW2 1984   0.018   1.234   3.966
  581SOL     OW 1985   0.096   1.748   4.679
  581SOL    HW1 1986   0.081   1.678   4.616
  581SOL    HW2 1987   0.175   1.792   4.648
  582SOL     OW 1988   0.490   1.578   4.627
  582SOL    HW1 1989   0.559   1.640   4.650
  582SOL    HW2 1990   0.534   1.514   4.570
  583SOL     OW 1991   0.972   0.787   4.946
  583SOL    HW1 1992   1.031   0.767   5.019
  583SOL    HW2 1993   0.888   0.748   4.972
  584SOL     OW 1994   0.052   0.605   4.830
  584SOL    HW1 1995   0.134   0.573   4.792
  584SOL    HW2 1996   0.058   0.581   4.923
  585SOL     OW 1997   0.210   0.521   5.442
  585SOL    HW1 1998   0.298   0.491   5.416
  585SOL    HW2 1999   0.197   0.603   5.395
  586SOL     OW 2000   1.382   0.932   5.381
  586SOL    HW1 2001   1.403   1.025   5.377
  586SOL    HW2 2002   1.378   0.904   5.289
  587SOL     OW 2003   0.816   0.575   4.090
  587SOL    HW1 2004   0.825   0.499   4.032
  587SOL    HW2 2005   0.740   0.622   4.056
  588SOL     OW 2006   1.640   0.603   4.901
  588SOL    HW1 2007   1.627   0.543   4.975
  588SOL    HW2 2008   1.728   0.584   4.870
  589SOL     OW 2009   0.280   1.560   5.457
  589SOL    HW1 2010   0.229   1.620   5.510
  589SOL    HW2 2011   0.263   1.474   5.495
  590SOL     OW 2012   0.718   0.460   4.980
  590SOL    HW1 2013   0.665   0.385   4.952
  590SOL    HW2 2014   0.711   0.522   4.907
  591SOL     OW 2015   0.922   1.678   5.196
  591SOL    HW1 2016   0.896   1.638   5.113
  591SOL    HW2 2017   0.915   1.772   5.180
  592SOL     OW 2018   0.445   0.486   3.896
  592SOL    HW1 2019   0.502   0.561   3.913
  592SOL    HW2 2020   0.371   0.499   3.957
  593SOL     OW 2021   0.162   1.127   5.190
  593SOL    HW1 2022   0.152   1.065   5.262
  593SOL    HW2 2023   0.175   1.072   5.113
  594SOL     OW 2024   1.319   1.042   4.941
  594SOL    HW1 2025   1.339   0.979   4.873
  594SOL    HW2 2026   1.254   1.100   4.902
  595SOL     OW 2027   1.318   0.855   4.026
  595SOL    HW1 2028   1.244   0.826   4.078
  595SOL    HW2 2029   1.290   0.843   3.935
  596SOL     OW 2030   1.780   1.734   4.882
  596SOL    HW1 2031   1.840   1.761   4.813
  596SOL    HW2 2032   1.753   1.646   4.858
  597SOL     OW 2033   1.239   1.732   4.826
  597SOL    HW1 2034   1.322   1.757   4.786
  597SOL    HW2 2035   1.250   1.640   4.848
  598SOL     OW 2036   0.066   1.237   4.724
  598SOL    HW1 2037   0.083   1.259   4.816
  598SOL    HW2 2038   6.970   1.230   4.718
  599SOL     OW 2039   0.681   1.673   5.465
  599SOL    HW1 2040   0.619   1.746   5.457
  599SOL    HW2 2041   0.749   1.692   5.400
  600SOL     OW 2042   1.708   0.174   4.194
  600SOL    HW1 2043   1.787   0.156   4.144
  600SOL    HW2 2044   1.710   0.113   4.267
  601SOL     OW 2045   1.394   1.568   4.217
  601SOL    HW1 2046   1.451   1.602   4.148
  601SOL    HW2 2047   1.342   1.643   4.245
  602SOL     OW 2048   0.141   1.786   5.578
  602SOL    HW1 2049   0.100   1.718   5.631
  602SOL    HW2 2050   0.189   1.840   5.641
  603SOL     OW 2051   1.278   0.929   4.394
  603SOL    HW1 2052   1.352   0.870   4.406
  603SOL    HW2 2053   1.313   1.001   4.340
  604SOL     OW 2054   0.802   1.278   5.146
  604SOL    HW1 2055   0.776   1.320   5.228
  604SOL    HW2 2056   0.730   1.297   5.085
  605SOL     OW 2057   0.673   1.631   3.880
  605SOL    HW1 2058   0.685   1.645   3.786
  605SOL    HW2 2059   0.619   1.552   3.885
  606SOL     OW 2060   1.618   1.728   5.116
  606SOL    HW1 2061   1.672   1.733   5.037
  606SOL    HW2 2062   1.604   1.820   5.140
  607SOL     OW 2063   1.871   0.159   4.676
  607SOL    HW1 2064   1.857   0.065   4.682
  607SOL    HW2 2065   1.783   0.195   4.663
  608SOL     OW 2066   0.289   0.337   4.442
  608SOL    HW1 2067   0.202   0.370   4.416
  608SOL    HW2 2068   0.280   0.313   4.534
  609SOL     OW 2069   1.209   1.600   3.758
  609SOL    HW1 2070   1.197   1.508   3.784
  609SOL    HW2 2071   1.142   1.614   3.690
  610SOL     OW 2072   0.824   1.009   5.100
  610SOL    HW1 2073   0.866   1.001   5.015
  610SOL    HW2 2074   0.819   1.103   5.117
  611SOL     OW 2075   0.915   0.910   4.016
  611SOL    HW1 2076   0.974   0.943   3.948
  611SOL    HW2 2077   0.966   0.843   4.062
  612SOL     OW 2078   1.488   1.630   3.770
  612SOL    HW1 2079   1.394   1.619   3.755
  612SOL    HW2 2080   1.526   1.636   3.683
  613SOL     OW 2081   0.374   1.308   5.215
  613SOL    HW1 2082   0.358   1.385   5.160
  613SOL    HW2 2083   0.306   1.246   5.188
  614SOL     OW 2084   1.607   1.285   5.003
  614SOL    HW1 2085   1.665   1.267   5.077
  614SOL    HW2 2086   1.547   1.352   5.036
  615SOL     OW 2087   1.064   1.112   4.436
  615SOL    HW1 2088   0.991   1.062   4.473
  615SOL    HW2 2089   1.128   1.045   4.411
  616SOL     OW 2090   1.028   0.248   4.670
  616SOL    HW1 2091   1.005   0.196   4.593
  616SOL    HW2 2092   1.013   0.189   4.744
  617SOL     OW 2093   0.610   1.490   4.206
  617SOL    HW1 2094   0.658   1.440   4.139
  617SOL    HW2 2095   0.528   1.514   4.163
  618SOL     OW 2096   1.730   0.389   5.101
  618SOL    HW1 2097   1.800   0.454   5.106
  618SOL    HW2 2098   1.768   0.317   5.049
  619SOL     OW 2099   0.263   1.349   3.996
  619SOL    HW1 2100   0.168   1.355   3.986
  619SOL    HW2 2101   0.280   1.385   4.083
  620SOL     OW 2102   0.122   0.972   5.425
  620SOL    HW1 2103   0.074   1.022   5.490
  620SOL    HW2 2104   0.208   0.957   5.464
  621SOL     OW 2105   0.666   0.242   5.236
  621SOL    HW1 2106   0.744   0.218   5.185
  621SOL    HW2 2107   0.701   0.271   5.320
  622SOL     OW 2108   0.076   0.310   3.781
  622SOL    HW1 2109   6.990   0.270   3.770
  622SOL    HW2 2110   0.068   0.397   3.742
  623SOL     OW 2111   1.425   0.859   5.121
  623SOL    HW1 2112   1.374   0.919   5.066
  623SOL    HW2 2113   1.513   0.861   5.084
  624SOL     OW 2114   0.045   0.197   4.040
  624SOL    HW1 2115   0.062   0.247   3.960
  624SOL    HW2 2116   0.069   0.107   4.017
  625SOL     OW 2117   1.178   1.333   3.842
  625SOL    HW1 2118   1.086   1.306   3.842
  625SOL    HW2 2119   1.203   1.334   3.934
  626SOL     OW 2120   0.622   0.833   5.160
  626SOL    HW1 2121   0.678   0.909   5.145
  626SOL    HW2 2122   0.684   0.760   5.169
  627SOL     OW 2123   1.483   1.788   4.708
  627SOL    HW1 2124   1.506   1.855   4.644
  627SOL    HW2 2125   1.568   1.758   4.743
  628SOL     OW 2126   0.712   0.559   5.430
  628SOL    HW1 2127   0.760   0.621   5.484
  628SOL    HW2 2128   0.733   0.473   5.466
  629SOL     OW 2129   1.474   1.192   5.351
  629SOL    HW1 2130   1.462   1.209   5.445
  629SOL    HW2 2131   1.566   1.213   5.335
  630SOL     OW 2132   0.368   1.752   5.286
  630SOL    HW1 2133   0.281   1.790   5.271
  630SOL    HW2 2134   0.350   1.671   5.333
  631SOL     OW 2135   1.663   0.879   4.979
  631SOL    HW1 2136   1.660   0.794   4.936
  631SOL    HW2 2137   1.653   0.943   4.908
  632SOL     OW 2138   1.221   0.322   4.175
  632SOL    HW1 2139   1.290   0.256   4.170
  632SOL    HW2 2140   1.242   0.373   4.253
  633SOL     OW 2141   0.589   0.735   4.397
  633SOL    HW1 2142   0.627   0.822   4.385
  633SOL    HW2 2143   0.525   0.727   4.326
  634SOL     OW 2144   1.749   0.368   5.375
  634SOL    HW1 2145   1.740   0.381   5.281
  634SOL    HW2 2146   1.678   0.308   5.398
  635SOL     OW 2147   1.750   0.933   5.234
  635SOL    HW1 2148   1.737   1.027   5.247
  635SOL    HW2 2149   1.730   0.918   5.142
  636SOL     OW 2150   0.868   1.363   3.771
  636SOL    HW1 2151   0.827   1.390   3.854
  636SOL    HW2 2152   0.879   1.445   3.722
  637SOL     OW 2153   0.665   1.783   4.660
  637SOL    HW1 2154   0.647   1.875   4.641
  637SOL    HW2 2155   0.760   1.775   4.654
  638SOL     OW 2156   0.870   0.973   4.577
  638SOL    HW1 2157   0.920   0.900   4.615
  638SOL    HW2 2158   0.829   1.015   4.653
  639SOL     OW 2159   1.074   0.986   3.812
  639SOL    HW1 2160   1.055   1.040   3.736
  639SOL    HW2 2161   1.149   0.932   3.785
  640SOL     OW 2162   1.844   1.552   4.564
  640SOL    HW1 2163   1.764   1.541   4.513
  640SOL    HW2 2164   1.834   1.492   4.638
  641SOL     OW 2165   0.237   1.307   5.588
  641SOL    HW1 2166   0.148   1.272   5.581
  641SOL    HW2 2167   0.251   1.317   5.682
  642SOL     OW 2168   0.152   1.283   4.424
  642SOL    HW1 2169   0.116   1.239   4.501
  642SOL    HW2 2170   0.179   1.212   4.366
  643SOL     OW 2171   0.689   1.410   5.357
  643SOL    HW1 2172   0.609   1.367   5.388
  643SOL    HW2 2173   0.685   1.498   5.393
  644SOL     OW 2174   1.851   0.190   4.963
  644SOL    HW1 2175   1.781   0.128   4.942
  644SOL    HW2 2176   1.885   0.218   4.877
  645SOL     OW 2177   0.457   0.435   4.247
  645SOL    HW1 2178   0.486   0.357   4.200
  645SOL    HW2 2179   0.410   0.402   4.323
  646SOL     OW 2180   1.698   1.484   4.813
  646SOL    HW1 2181   1.618   1.465   4.763
  646SOL    HW2 2182   1.701   1.416   4.880
  647SOL     OW 2183   0.334   0.558   5.017
  647SOL    HW1 2184   0.390   0.504   5.073
  647SOL    HW2 2185   0.353   0.527   4.928
  648SOL     OW 2186   0.833   1.579   4.398
  648SOL    HW1 2187   0.810   1.645   4.333
  648SOL    HW2 2188   0.758   1.520   4.399
  649SOL     OW 2189   1.408   0.214   4.855
  649SOL    HW1 2190   1.485   0.176   4.897
  649SOL    HW2 2191   1.362   0.259   4.926
  650SOL     OW 2192   0.971   0.059   4.860
  650SOL    HW1 2193   0.920   6.995   4.810
  650SOL    HW2 2194   1.023   0.007   4.921
  651SOL     OW 2195   0.775   1.333   4.046
  651SOL    HW1 2196   0.749   1.241   4.055
  651SOL    HW2 2197   0.857   1.340   4.096
  652SOL     OW 2198   0.622   1.556   5.012
  652SOL    HW1 2199   0.621   1.639   5.061
  652SOL    HW2 2200   0.710   1.551   4.975
  653SOL     OW 2201   1.322   0.012   3.919
  653SOL    HW1 2202   1.361   6.942   3.867
  653SOL    HW2 2203   1.249   6.971   3.964
  654SOL     OW 2204   1.266   0.453   4.408
  654SOL    HW1 2205   1.223   0.538   4.408
  654SOL    HW2 2206   1.285   0.435   4.500
  655SOL     OW 2207   1.622   0.259   4.642
  655SOL    HW1 2208   1.535   0.238   4.674
  655SOL    HW2 2209   1.608   0.318   4.568
  656SOL     OW 2210   0.065   1.064   4.003
  656SOL    HW1 2211   0.153   1.027   4.004
  656SOL    HW2 2212   0.007   0.990   4.021
  657SOL     OW 2213   0.891   1.663   4.061
  657SOL    HW1 2214   0.816   1.648   4.003
  657SOL    HW2 2215   0.863   1.734   4.118
  658SOL     OW 2216   0.171   0.651   5.708
  658SOL    HW1 2217   0.170   0.589   5.781
  658SOL    HW2 2218   0.215   0.604   5.638
  659SOL     OW 2219   0.215   0.292   6.570
  659SOL    HW1 2220   0.272   0.245   6.631
  659SOL    HW2 2221   0.127   0.266   6.594
  660SOL     OW 2222   6.998   0.389   6.243
  660SOL    HW1 2223   6.945   0.399   6.322
  660SOL    HW2 2224   0.023   0.297   6.243
  661SOL     OW 2225   0.557   1.261   6.746
  661SOL    HW1 2226   0.473   1.289   6.710
  661SOL    HW2 2227   0.590   1.338   6.792
  662SOL     OW 2228   1.573   1.515   6.295
  662SOL    HW1 2229   1.527   1.492   6.376
  662SOL    HW2 2230   1.503   1.519   6.229
  663SOL     OW 2231   1.131   0.700   6.282
  663SOL    HW1 2232   1.179   0.782   6.270
  663SOL    HW2 2233   1.082   0.713   6.363
  664SOL     OW 2234   1.781   0.600   5.809
  664SOL    HW1 2235   1.755   0.596   5.717
  664SOL    HW2 2236   1.739   0.524   5.849
  665SOL     OW 2237   0.766   1.135   6.631
  665SOL    HW1 2238   0.691   1.158   6.685
  665SOL    HW2 2239   0.791   1.217   6.587
  666SOL     OW 2240   0.685   0.997   6.230
  666SOL    HW1 2241   0.752   0.989   6.298
  666SOL    HW2 2242   0.617   1.052   6.269
  667SOL     OW 2243   0.342   1.404   6.645
  667SOL    HW1 2244   0.263   1.375   6.600
  667SOL    HW2 2245   0.384   1.465   6.584
  668SOL     OW 2246   1.614   0.460   6.317
  668SOL    HW1 2247   1.561   0.484   6.241
  668SOL    HW2 2248   1.606   0.534   6.377
  669SOL     OW 2249   0.223   1.709   6.052
  669SOL    HW1 2250   0.241   1.786   6.105
  669SOL    HW2 2251   0.291   1.710   5.984
  670SOL     OW 2252   0.287   1.443   6.104
  670SOL    HW1 2253   0.259   1.534   6.111
  670SOL    HW2 2254   0.242   1.398   6.175
  671SOL     OW 2255   0.271   1.082   6.486
  671SOL    HW1 2256   0.269   0.992   6.517
  671SOL    HW2 2257   0.197   1.124   6.530
  672SOL     OW 2258   0.619   1.788   6.994
  672SOL    HW1 2259   0.525   1.775   0.007
  672SOL    HW2 2260   0.634   1.879   0.019
  673SOL     OW 2261   0.576   0.986   5.727
  673SOL    HW1 2262   0.627   1.031   5.659
  673SOL    HW2 2263   0.614   1.017   5.809
  674SOL     OW 2264   0.135   0.616   6.151
  674SOL    HW1 2265   0.075   0.547   6.181
  674SOL    HW2 2266   0.120   0.688   6.213
  675SOL     OW 2267   1.844   1.752   5.915
  675SOL    HW1 2268   1.914   1.728   5.976
  675SOL    HW2 2269   1.860   1.844   5.895
  676SOL     OW 2270   0.036   1.593   5.734
  676SOL    HW1 2271   0.027   1.499   5.748
  676SOL    HW2 2272   6.953   1.630   5.764
  677SOL     OW 2273   1.690   0.918   6.230
  677SOL    HW1 2274   1.771   0.874   6.206
  677SOL    HW2 2275   1.668   0.970   6.152
  678SOL     OW 2276   1.651   1.102   6.015
  678SOL    HW1 2277   1.738   1.102   5.974
  678SOL    HW2 2278   1.658   1.167   6.086
  679SOL     OW 2279   0.614   1.391   6.322
  679SOL    HW1 2280   0.569   1.308   6.330
  679SOL    HW2 2281   0.598   1.418   6.231
  680SOL     OW 2282   0.839   0.024   6.100
  680SOL    HW1 2283   0.871   0.112   6.082
  680SOL    HW2 2284   0.744   0.033   6.100
  681SOL     OW 2285   0.201   0.945   6.827
  681SOL    HW1 2286   0.288   0.906   6.822
  681SOL    HW2 2287   0.154   0.910   6.752
  682SOL     OW 2288   1.531   1.001   5.787
  682SOL    HW1 2289   1.462   0.943   5.820
  682SOL    HW2 2290   1.574   1.034   5.865
  683SOL     OW 2291   1.459   1.423   6.531
  683SOL    HW1 2292   1.401   1.434   6.607
  683SOL    HW2 2293   1.450   1.331   6.507
  684SOL     OW 2294   1.651   1.758   6.162
  684SOL    HW1 2295   1.633   1.723   6.075
  684SOL    HW2 2296   1.635   1.685   6.221
  685SOL     OW 2297   0.588   0.711   5.847
  685SOL    HW1 2298   0.598   0.798   5.808
  685SOL    HW2 2299   0.529   0.725   5.921
  686SOL     OW 2300   1.277   0.370   6.535
  686SOL    HW1 2301   1.184   0.350   6.546
  686SOL    HW2 2302   1.320   0.321   6.605
  687SOL     OW 2303   1.578   1.674   5.897
  687SOL    HW1 2304   1.670   1.698   5.889
  687SOL    HW2 2305   1.549   1.657   5.808
  688SOL     OW 2306   0.795   0.632   0.043
  688SOL    HW1 2307   0.732   0.656   0.111
  688SOL    HW2 2308   0.747   0.571   6.986
  689SOL     OW 2309   1.004   0.392   6.793
  689SOL    HW1 2310   0.959   0.450   6.854
  689SOL    HW2 2311   0.934   0.360   6.735
  690SOL     OW 2312   1.055   0.698   6.010
  690SOL    HW1 2313   1.073   0.693   6.104
  690SOL    HW2 2314   0.970   0.655   6.000
  691SOL     OW 2315   0.100   0.812   6.360
  691SOL    HW1 2316   0.190   0.811   6.393
  691SOL    HW2 2317   0.046   0.834   6.436
  692SOL     OW 2318   0.099   1.838   0.167
  692SOL    HW1 2319   0.080   1.817   0.258
  692SOL    HW2 2320   0.014   1.837   0.123
  693SOL     OW 2321   0.889   0.356   5.786
  693SOL    HW1 2322   0.936   0.412   5.723
  693SOL    HW2 2323   0.860   0.281   5.734
  694SOL     OW 2324   1.382   1.142   6.124
  694SOL    HW1 2325   1.462   1.132   6.073
  694SOL    HW2 2326   1.329   1.204   6.075
  695SOL     OW 2327   0.504   0.202   6.497
  695SOL    HW1 2328   0.561   0.245   6.561
  695SOL    HW2 2329   0.512   0.254   6.418
  696SOL     OW 2330   0.998   1.444   6.052
  696SOL    HW1 2331   0.969   1.520   6.001
  696SOL    HW2 2332   0.972   1.464   6.142
  697SOL     OW 2333   0.354   1.820   6.450
  697SOL    HW1 2334   0.393   1.734   6.465
  697SOL    HW2 2335   0.423   1.882   6.474
  698SOL     OW 2336   1.806   1.050   6.452
  698SOL    HW1 2337   1.754   1.030   6.375
  698SOL    HW2 2338   1.743   1.050   6.524
  699SOL     OW 2339   0.312   0.946   5.839
  699SOL    HW1 2340   0.395   0.967   5.795
  699SOL    HW2 2341   0.287   0.861   5.804
  700SOL     OW 2342   1.482   0.752   6.305
  700SOL    HW1 2343   1.477   0.713   6.392
  700SOL    HW2 2344   1.559   0.808   6.307
  701SOL     OW 2345   1.126   1.778   5.813
  701SOL    HW1 2346   1.049   1.740   5.856
  701SOL    HW2 2347   1.150   1.714   5.746
  702SOL     OW 2348   1.629   1.382   5.678
  702SOL    HW1 2349   1.588   1.467   5.663
  702SOL    HW2 2350   1.561   1.319   5.656
  703SOL     OW 2351   0.465   1.737   5.902
  703SOL    HW1 2352   0.510   1.789   5.968
  703SOL    HW2 2353   0.536   1.701   5.848
  704SOL     OW 2354   1.423   0.138   6.014
  704SOL    HW1 2355   1.409   0.092   5.931
  704SOL    HW2 2356   1.518   0.142   6.024
  705SOL     OW 2357   0.250   1.816   6.776
  705SOL    HW1 2358   0.304   1.743   6.808
  705SOL    HW2 2359   0.184   1.774   6.720
  706SOL     OW 2360   0.936   1.699   6.477
  706SOL    HW1 2361   1.011   1.649   6.508
  706SOL    HW2 2362   0.900   1.647   6.406
  707SOL     OW 2363   0.402   0.692   6.054
  707SOL    HW1 2364   0.426   0.601   6.072
  707SOL    HW2 2365   0.309   0.697   6.078
  708SOL     OW 2366   0.655   0.112   5.686
  708SOL    HW1 2367   0.689   0.039   5.738
  708SOL    HW2 2368   0.592   0.072   5.626
  709SOL     OW 2369   0.883   1.524   6.765
  709SOL    HW1 2370   0.854   1.491   6.680
  709SOL    HW2 2371   0.895   1.445   6.819
  710SOL     OW 2372   0.815   1.386   6.528
  710SOL    HW1 2373   0.901   1.378   6.485
  710SOL    HW2 2374   0.753   1.395   6.455
  711SOL     OW 2375   0.933   0.511   6.483
  711SOL    HW1 2376   0.904   0.505   6.392
  711SOL    HW2 2377   0.964   0.423   6.504
  712SOL     OW 2378   0.575   0.063   6.068
  712SOL    HW1 2379   0.503   0.057   6.130
  712SOL    HW2 2380   0.551   0.134   6.009
  713SOL     OW 2381   1.428   1.202   5.624
  713SOL    HW1 2382   1.457   1.127   5.676
  713SOL    HW2 2383   1.342   1.225   5.661
  714SOL     OW 2384   0.315   0.045   5.787
  714SOL    HW1 2385   0.342   0.137   5.787
  714SOL    HW2 2386   0.368   0.004   5.856
  715SOL     OW 2387   0.948   0.270   6.041
  715SOL    HW1 2388   0.923   0.301   5.954
  715SOL    HW2 2389   1.043   0.281   6.044
  716SOL     OW 2390   1.219   1.571   6.379
  716SOL    HW1 2391   1.231   1.638   6.312
  716SOL    HW2 2392   1.292   1.583   6.439
  717SOL     OW 2393   0.472   1.153   6.315
  717SOL    HW1 2394   0.408   1.132   6.383
  717SOL    HW2 2395   0.425   1.139   6.233
  718SOL     OW 2396   1.262   1.791   6.200
  718SOL    HW1 2397   1.310   1.854   6.146
  718SOL    HW2 2398   1.191   1.842   6.240
  719SOL     OW 2399   1.020   0.533   5.619
  719SOL    HW1 2400   0.978   0.617   5.599
  719SOL    HW2 2401   1.087   0.555   5.684
  720SOL     OW 2402   0.593   0.217   6.775
  720SOL    HW1 2403   0.603   0.126   6.745
  720SOL    HW2 2404   0.499   0.225   6.793
  721SOL     OW 2405   0.864   0.466   6.224
  721SOL    HW1 2406   0.817   0.520   6.159
  721SOL    HW2 2407   0.890   0.388   6.175
  722SOL     OW 2408   0.972   0.023   6.345
  722SOL    HW1 2409   0.918   0.022   6.266
  722SOL    HW2 2410   1.018   6.940   6.343
  723SOL     OW 2411   1.436   1.159   6.441
  723SOL    HW1 2412   1.370   1.090   6.443
  723SOL    HW2 2413   1.457   1.169   6.349
  724SOL     OW 2414   1.464   0.612   6.547
  724SOL    HW1 2415   1.407   0.536   6.558
  724SOL    HW2 2416   1.525   0.608   6.620
  725SOL     OW 2417   1.839   0.809   5.972
  725SOL    HW1 2418   1.898   0.761   6.030
  725SOL    HW2 2419   1.816   0.747   5.903
  726SOL     OW 2420   0.500   1.424   5.734
  726SOL    HW1 2421   0.421   1.398   5.781
  726SOL    HW2 2422   0.491   1.383   5.647
  727SOL     OW 2423   1.679   1.265   6.225
  727SOL    HW1 2424   1.773   1.264   6.242
  727SOL    HW2 2425   1.652   1.354   6.249
  728SOL     OW 2426   1.395   0.574   5.659
  728SOL    HW1 2427   1.332   0.552   5.728
  728SOL    HW2 2428   1.481   0.562   5.700
  729SOL     OW 2429   0.517   0.254   5.882
  729SOL    HW1 2430   0.577   0.214   5.819
  729SOL    HW2 2431   0.497   0.340   5.844
  730SOL     OW 2432   1.757   1.192   0.178
  730SOL    HW1 2433   1.852   1.180   0.178
  730SOL    HW2 2434   1.744   1.283   0.152
  731SOL     OW 2435   1.118   1.238   6.693
  731SOL    HW1 2436   1.036   1.194   6.716
  731SOL    HW2 2437   1.104   1.267   6.602
  732SOL     OW 2438   1.618   1.076   6.645
  732SOL    HW1 2439   1.617   1.145   6.711
  732SOL    HW2 2440   1.545   1.098   6.587
  733SOL     OW 2441   0.709   1.062   5.958
  733SOL    HW1 2442   0.695   1.042   6.051
  733SOL    HW2 2443   0.784   1.009   5.933
  734SOL     OW 2444   0.442   0.810   6.850
  734SOL    HW1 2445   0.487   0.830   6.932
  734SOL    HW2 2446   0.404   0.723   6.864
  735SOL     OW 2447   1.264   0.379   6.871
  735SOL    HW1 2448   1.291   0.456   6.922
  735SOL    HW2 2449   1.175   0.400   6.842
  736SOL     OW 2450   0.086   1.573   6.860
  736SOL    HW1 2451   0.045   1.592   6.945
  736SOL    HW2 2452   0.179   1.582   6.877
  737SOL     OW 2453   0.335   1.115   6.078
  737SOL    HW1 2454   0.345   1.188   6.016
  737SOL    HW2 2455   0.333   1.037   6.023
  738SOL     OW 2456   0.549   0.534   6.445
  738SOL    HW1 2457   0.562   0.593   6.370
  738SOL    HW2 2458   0.617   0.559   6.507
  739SOL     OW 2459   1.247   1.350   5.977
  739SOL    HW1 2460   1.302   1.421   6.009
  739SOL    HW2 2461   1.159   1.372   6.010
  740SOL     OW 2462   1.288   1.447   6.748
  740SOL    HW1 2463   1.319   1.428   6.836
  740SOL    HW2 2464   1.224   1.378   6.729
  741SOL     OW 2465   1.572   0.621   6.072
  741SOL    HW1 2466   1.523   0.672   6.137
  741SOL    HW2 2467   1.621   0.687   6.022
  742SOL     OW 2468   0.371   1.586   6.847
  742SOL    HW1 2469   0.362   1.513   6.786
  742SOL    HW2 2470   0.442   1.559   6.906
  743SOL     OW 2471   0.588   0.871   6.622
  743SOL    HW1 2472   0.618   0.962   6.623
  743SOL    HW2 2473   0.538   0.861   6.703
  744SOL     OW 2474   1.338   0.861   6.588
  744SOL    HW1 2475   1.251   0.836   6.555
  744SOL    HW2 2476   1.390   0.781   6.584
  745SOL     OW 2477   1.199   0.527   5.848
  745SOL    HW1 2478   1.208   0.450   5.903
  745SOL    HW2 2479   1.157   0.592   5.904
  746SOL     OW 2480   0.326   0.208   6.830
  746SOL    HW1 2481   0.268   0.208   6.906
  746SOL    HW2 2482   0.317   0.120   6.793
  747SOL     OW 2483   0.049   1.300   6.831
  747SOL    HW1 2484   0.085   1.239   6.896
  747SOL    HW2 2485   0.088   1.384   6.854
  748SOL     OW 2486   0.722   0.624   6.637
  748SOL    HW1 2487   0.801   0.613   6.583
  748SOL    HW2 2488   0.697   0.715   6.623
  749SOL     OW 2489   0.357   0.066   6.218
  749SOL    HW1 2490   0.310   0.144   6.250
  749SOL    HW2 2491   0.298   6.993   6.238
  750SOL     OW 2492   1.621   0.397   5.921
  750SOL    HW1 2493   1.651   0.326   5.978
  750SOL    HW2 2494   1.593   0.465   5.982
  751SOL     OW 2495   1.029   0.759   6.552
  751SOL    HW1 2496   1.016   0.775   6.645
  751SOL    HW2 2497   1.004   0.668   6.539
  752SOL     OW 2498   1.923   1.471   0.199
  752SOL    HW1 2499   1.901   1.500   0.110
  752SOL    HW2 2500   1.910   1.549   0.254
  753SOL     OW 2501   1.540   0.228   5.718
  753SOL    HW1 2502   1.445   0.231   5.729
  753SOL    HW2 2503   1.574   0.288   5.785
  754SOL     OW 2504   1.284   0.824   5.612
  754SOL    HW1 2505   1.327   0.738   5.617
  754SOL    HW2 2506   1.318   0.863   5.531
  755SOL     OW 2507   1.069   1.341   6.440
  755SOL    HW1 2508   1.076   1.269   6.377
  755SOL    HW2 2509   1.126   1.410   6.404
  756SOL     OW 2510   0.320   0.806   6.535
  756SOL    HW1 2511   0.413   0.827   6.534
  756SOL    HW2 2512   0.316   0.715   6.564
  757SOL     OW 2513   0.334   0.530   6.602
  757SOL    HW1 2514   0.292   0.447   6.583
  757SOL    HW2 2515   0.410   0.533   6.544
  758SOL     OW 2516   1.141   0.220   0.072
  758SOL    HW1 2517   1.164   0.291   0.133
  758SOL    HW2 2518   1.167   0.252   6.986
  759SOL     OW 2519   6.994   1.325   5.807
  759SOL    HW1 2520   6.924   1.346   5.869
  759SOL    HW2 2521   0.017   1.235   5.828
  760SOL     OW 2522   0.094   1.751   6.536
  760SOL    HW1 2523   0.081   1.680   6.473
  760SOL    HW2 2524   0.176   1.792   6.510
  761SOL     OW 2525   0.491   1.576   6.490
  761SOL    HW1 2526   0.558   1.640   6.512
  761SOL    HW2 2527   0.534   1.515   6.432
  762SOL     OW 2528   0.972   0.784   6.823
  762SOL    HW1 2529   1.051   0.776   6.876
  762SOL    HW2 2530   0.902   0.746   6.876
  763SOL     OW 2531   0.069   0.616   6.709
  763SOL    HW1 2532   0.109   0.565   6.639
  763SOL    HW2 2533   0.124   0.599   6.785
  764SOL     OW 2534   0.816   0.575   5.953
  764SOL    HW1 2535   0.825   0.499   5.895
  764SOL    HW2 2536   0.740   0.622   5.918
  765SOL     OW 2537   1.648   0.611   6.748
  765SOL    HW1 2538   1.638   0.558   6.827
  765SOL    HW2 2539   1.740   0.600   6.723
  766SOL     OW 2540   0.683   0.468   6.856
  766SOL    HW1 2541   0.655   0.382   6.826
  766SOL    HW2 2542   0.689   0.521   6.776
  767SOL     OW 2543   0.943   1.658   6.998
  767SOL    HW1 2544   0.913   1.637   6.909
  767SOL    HW2 2545   0.910   1.747   0.014
  768SOL     OW 2546   0.445   0.486   5.758
  768SOL    HW1 2547   0.503   0.561   5.774
  768SOL    HW2 2548   0.372   0.500   5.818
  769SOL     OW 2549   0.166   1.125   0.023
  769SOL    HW1 2550   0.191   1.075   0.101
  769SOL    HW2 2551   0.175   1.062   6.951
  770SOL     OW 2552   1.270   0.997   6.817
  770SOL    HW1 2553   1.306   0.954   6.739
  770SOL    HW2 2554   1.260   1.088   6.791
  771SOL     OW 2555   1.318   0.855   5.887
  771SOL    HW1 2556   1.244   0.826   5.940
  771SOL    HW2 2557   1.290   0.843   5.797
  772SOL     OW 2558   1.783   1.752   6.743
  772SOL    HW1 2559   1.843   1.770   6.671
  772SOL    HW2 2560   1.749   1.665   6.725
  773SOL     OW 2561   1.246   1.724   6.699
  773SOL    HW1 2562   1.326   1.748   6.654
  773SOL    HW2 2563   1.255   1.631   6.718
  774SOL     OW 2564   0.056   1.234   6.572
  774SOL    HW1 2565   0.062   1.256   6.665
  774SOL    HW2 2566   6.962   1.229   6.554
  775SOL     OW 2567   1.709   0.177   6.057
  775SOL    HW1 2568   1.788   0.156   6.006
  775SOL    HW2 2569   1.708   0.112   6.127
  776SOL     OW 2570   1.394   1.568   6.078
  776SOL    HW1 2571   1.451   1.603   6.010
  776SOL    HW2 2572   1.342   1.643   6.107
  777SOL     OW 2573   1.277   0.929   6.255
  777SOL    HW1 2574   1.351   0.869   6.266
  777SOL    HW2 2575   1.312   1.000   6.201
  778SOL     OW 2576   0.673   1.630   5.741
  778SOL    HW1 2577   0.685   1.645   5.648
  778SOL    HW2 2578   0.619   1.551   5.747
  779SOL     OW 2579   1.865   0.161   6.540
  779SOL    HW1 2580   1.860   0.066   6.541
  779SOL    HW2 2581   1.776   0.190   6.519
  780SOL     OW 2582   0.288   0.338   6.305
  780SOL    HW1 2583   0.203   0.371   6.277
  780SOL    HW2 2584   0.276   0.314   6.397
  781SOL     OW 2585   1.208   1.600   5.620
  781SOL    HW1 2586   1.197   1.508   5.646
  781SOL    HW2 2587   1.142   1.614   5.552
  782SOL     OW 2588   0.773   1.024   6.958
  782SOL    HW1 2589   0.827   0.981   6.892
  782SOL    HW2 2590   0.830   1.092   6.995
  783SOL     OW 2591   0.915   0.909   5.878
  783SOL    HW1 2592   0.974   0.942   5.810
  783SOL    HW2 2593   0.966   0.843   5.924
  784SOL     OW 2594   1.488   1.630   5.632
  784SOL    HW1 2595   1.394   1.619   5.617
  784SOL    HW2 2596   1.527   1.636   5.545
  785SOL     OW 2597   1.610   1.275   6.827
  785SOL    HW1 2598   1.688   1.288   6.881
  785SOL    HW2 2599   1.540   1.257   6.889
  786SOL     OW 2600   1.063   1.110   6.298
  786SOL    HW1 2601   0.990   1.060   6.333
  786SOL    HW2 2602   1.128   1.045   6.272
  787SOL     OW 2603   1.024   0.243   6.519
  787SOL    HW1 2604   1.001   0.185   6.446
  787SOL    HW2 2605   1.021   0.186   6.596
  788SOL     OW 2606   0.609   1.489   6.067
  788SOL    HW1 2607   0.657   1.440   6.001
  788SOL    HW2 2608   0.528   1.515   6.024
  789SOL     OW 2609   1.702   0.436   6.949
  789SOL    HW1 2610   1.759   0.440   0.026
  789SOL    HW2 2611   1.715   0.347   6.915
  790SOL     OW 2612   0.263   1.349   5.858
  790SOL    HW1 2613   0.168   1.355   5.848
  790SOL    HW2 2614   0.280   1.385   5.945
  791SOL     OW 2615   0.076   0.310   5.643
  791SOL    HW1 2616   6.990   0.270   5.632
  791SOL    HW2 2617   0.068   0.397   5.603
  792SOL     OW 2618   0.045   0.197   5.902
  792SOL    HW1 2619   0.061   0.247   5.821
  792SOL    HW2 2620   0.070   0.108   5.879
  793SOL     OW 2621   1.178   1.333   5.704
  793SOL    HW1 2622   1.086   1.306   5.705
  793SOL    HW2 2623   1.203   1.334   5.796
  794SOL     OW 2624   1.486   1.783   6.573
  794SOL    HW1 2625   1.502   1.852   6.508
  794SOL    HW2 2626   1.573   1.760   6.605
  795SOL     OW 2627   1.500   1.303   0.275
  795SOL    HW1 2628   1.416   1.265   0.301
  795SOL    HW2 2629   1.559   1.228   0.266
  796SOL     OW 2630   0.371   1.764   0.103
  796SOL    HW1 2631   0.294   1.822   0.101
  796SOL    HW2 2632   0.398   1.764   0.195
  797SOL     OW 2633   1.703   0.879   6.832
  797SOL    HW1 2634   1.671   0.794   6.801
  797SOL    HW2 2635   1.669   0.942   6.769
  798SOL     OW 2636   1.221   0.321   6.041
  798SOL    HW1 2637   1.291   0.256   6.033
  798SOL    HW2 2638   1.243   0.372   6.119
  799SOL     OW 2639   0.587   0.736   6.259
  799SOL    HW1 2640   0.627   0.822   6.247
  799SOL    HW2 2641   0.524   0.728   6.187
  800SOL     OW 2642   1.766   0.909   0.102
  800SOL    HW1 2643   1.762   1.003   0.117
  800SOL    HW2 2644   1.746   0.899   0.009
  801SOL     OW 2645   0.868   1.363   5.633
  801SOL    HW1 2646   0.827   1.390   5.715
  801SOL    HW2 2647   0.879   1.445   5.584
  802SOL     OW 2648   0.665   1.782   6.520
  802SOL    HW1 2649   0.649   1.875   6.499
  802SOL    HW2 2650   0.760   1.773   6.516
  803SOL     OW 2651   0.872   0.968   6.437
  803SOL    HW1 2652   0.920   0.896   6.477
  803SOL    HW2 2653   0.835   1.016   6.511
  804SOL     OW 2654   1.073   0.985   5.674
  804SOL    HW1 2655   1.054   1.039   5.598
  804SOL    HW2 2656   1.148   0.932   5.647
  805SOL     OW 2657   1.848   1.553   6.424
  805SOL    HW1 2658   1.767   1.542   6.375
  805SOL    HW2 2659   1.842   1.490   6.496
  806SOL     OW 2660   0.153   1.283   6.285
  806SOL    HW1 2661   0.119   1.240   6.363
  806SOL    HW2 2662   0.178   1.212   6.227
  807SOL     OW 2663   1.843   0.196   6.840
  807SOL    HW1 2664   1.776   0.128   6.834
  807SOL    HW2 2665   1.863   0.219   6.749
  808SOL     OW 2666   0.457   0.436   6.109
  808SOL    HW1 2667   0.486   0.358   6.062
  808SOL    HW2 2668   0.410   0.402   6.185
  809SOL     OW 2669   1.684   1.505   6.675
  809SOL    HW1 2670   1.609   1.485   6.619
  809SOL    HW2 2671   1.689   1.433   6.737
  810SOL     OW 2672   0.325   0.558   6.877
  810SOL    HW1 2673   0.376   0.491   6.923
  810SOL    HW2 2674   0.336   0.539   6.784
  811SOL     OW 2675   0.834   1.577   6.256
  811SOL    HW1 2676   0.812   1.646   6.193
  811SOL    HW2 2677   0.757   1.520   6.255
  812SOL     OW 2678   1.416   0.218   6.711
  812SOL    HW1 2679   1.492   0.175   6.750
  812SOL    HW2 2680   1.374   0.262   6.785
  813SOL     OW 2681   0.994   0.051   6.712
  813SOL    HW1 2682   0.911   0.004   6.707
  813SOL    HW2 2683   1.034   0.023   6.794
  814SOL     OW 2684   0.775   1.333   5.908
  814SOL    HW1 2685   0.750   1.241   5.917
  814SOL    HW2 2686   0.856   1.340   5.958
  815SOL     OW 2687   1.320   0.011   5.782
  815SOL    HW1 2688   1.361   6.942   5.730
  815SOL    HW2 2689   1.249   6.968   5.829
  816SOL     OW 2690   1.273   0.459   6.269
  816SOL    HW1 2691   1.226   0.542   6.271
  816SOL    HW2 2692   1.284   0.434   6.361
  817SOL     OW 2693   1.610   0.245   6.487
  817SOL    HW1 2694   1.532   0.254   6.542
  817SOL    HW2 2695   1.604   0.317   6.424
  818SOL     OW 2696   0.065   1.064   5.865
  818SOL    HW1 2697   0.153   1.027   5.866
  818SOL    HW2 2698   0.007   0.990   5.883
  819SOL     OW 2699   0.891   1.663   5.922
  819SOL    HW1 2700   0.816   1.648   5.865
  819SOL    HW2 2701   0.863   1.734   5.980
  820SOL     OW 2702   0.238   2.515   0.132
  820SOL    HW1 2703   0.162   2.470   0.168
  820SOL    HW2 2704   0.246   2.482   0.042
  821SOL     OW 2705   0.227   2.136   0.991
  821SOL    HW1 2706   0.276   2.100   1.064
  821SOL    HW2 2707   0.135   2.118   1.012
  822SOL     OW 2708   6.983   2.249   0.656
  822SOL    HW1 2709   6.936   2.248   0.739
  822SOL    HW2 2710   0.007   2.157   0.641
  823SOL     OW 2711   0.570   3.161   1.188
  823SOL    HW1 2712   0.485   3.166   1.144
  823SOL    HW2 2713   0.587   3.250   1.219
  824SOL     OW 2714   1.572   3.379   0.709
  824SOL    HW1 2715   1.529   3.353   0.790
  824SOL    HW2 2716   1.502   3.378   0.643
  825SOL     OW 2717   1.131   2.560   0.694
  825SOL    HW1 2718   1.181   2.641   0.683
  825SOL    HW2 2719   1.084   2.572   0.777
  826SOL     OW 2720   1.792   2.436   0.194
  826SOL    HW1 2721   1.726   2.487   0.147
  826SOL    HW2 2722   1.742   2.382   0.255
  827SOL     OW 2723   0.742   2.998   1.048
  827SOL    HW1 2724   0.677   3.036   1.107
  827SOL    HW2 2725   0.783   3.073   1.005
  828SOL     OW 2726   0.877   2.621   1.825
  828SOL    HW1 2727   0.870   2.691   1.889
  828SOL    HW2 2728   0.898   2.666   1.743
  829SOL     OW 2729   0.684   2.855   0.647
  829SOL    HW1 2730   0.751   2.851   0.714
  829SOL    HW2 2731   0.616   2.912   0.684
  830SOL     OW 2732   0.716   3.011   1.821
  830SOL    HW1 2733   0.764   3.088   1.852
  830SOL    HW2 2734   0.638   3.047   1.780
  831SOL     OW 2735   0.338   3.277   1.066
  831SOL    HW1 2736   0.265   3.240   1.017
  831SOL    HW2 2737   0.383   3.334   1.002
  832SOL     OW 2738   1.458   3.365   1.363
  832SOL    HW1 2739   1.513   3.443   1.372
  832SOL    HW2 2740   1.389   3.376   1.429
  833SOL     OW 2741   0.443   2.253   1.490
  833SOL    HW1 2742   0.520   2.198   1.495
  833SOL    HW2 2743   0.369   2.192   1.499
  834SOL     OW 2744   1.603   2.305   0.745
  834SOL    HW1 2745   1.529   2.322   0.687
  834SOL    HW2 2746   1.606   2.381   0.803
  835SOL     OW 2747   0.198   3.610   0.465
  835SOL    HW1 2748   0.236   3.675   0.525
  835SOL    HW2 2749   0.272   3.575   0.416
  836SOL     OW 2750   1.138   3.205   1.695
  836SOL    HW1 2751   1.180   3.197   1.781
  836SOL    HW2 2752   1.086   3.125   1.686
  837SOL     OW 2753   0.278   3.327   0.539
  837SOL    HW1 2754   0.243   3.413   0.560
  837SOL    HW2 2755   0.241   3.268   0.605
  838SOL     OW 2756   0.274   2.946   0.905
  838SOL    HW1 2757   0.267   2.854   0.933
  838SOL    HW2 2758   0.201   2.989   0.949
  839SOL     OW 2759   0.602   3.656   1.426
  839SOL    HW1 2760   0.519   3.639   1.470
  839SOL    HW2 2761   0.626   3.744   1.454
  840SOL     OW 2762   0.580   2.827   0.147
  840SOL    HW1 2763   0.638   2.849   0.074
  840SOL    HW2 2764   0.617   2.875   0.222
  841SOL     OW 2765   1.595   1.990   1.463
  841SOL    HW1 2766   1.622   2.070   1.417
  841SOL    HW2 2767   1.573   2.020   1.552
  842SOL     OW 2768   0.129   2.479   0.572
  842SOL    HW1 2769   0.062   2.416   0.599
  842SOL    HW2 2770   0.118   2.553   0.633
  843SOL     OW 2771   1.845   3.624   0.340
  843SOL    HW1 2772   1.913   3.594   0.401
  843SOL    HW2 2773   1.850   3.720   0.345
  844SOL     OW 2774   6.973   3.417   0.121
  844SOL    HW1 2775   6.963   3.325   0.144
  844SOL    HW2 2776   0.041   3.450   0.180
  845SOL     OW 2777   1.690   2.777   0.647
  845SOL    HW1 2778   1.769   2.732   0.618
  845SOL    HW2 2779   1.666   2.833   0.573
  846SOL     OW 2780   1.650   2.961   0.442
  846SOL    HW1 2781   1.722   2.976   0.381
  846SOL    HW2 2782   1.663   3.026   0.511
  847SOL     OW 2783   0.149   2.594   1.575
  847SOL    HW1 2784   0.244   2.604   1.563
  847SOL    HW2 2785   0.120   2.681   1.605
  848SOL     OW 2786   0.617   3.251   0.740
  848SOL    HW1 2787   0.571   3.168   0.749
  848SOL    HW2 2788   0.604   3.275   0.648
  849SOL     OW 2789   1.284   3.097   1.420
  849SOL    HW1 2790   1.313   3.028   1.360
  849SOL    HW2 2791   1.344   3.091   1.495
  850SOL     OW 2792   0.823   1.870   0.519
  850SOL    HW1 2793   0.864   1.953   0.495
  850SOL    HW2 2794   0.730   1.889   0.523
  851SOL     OW 2795   0.202   2.821   1.261
  851SOL    HW1 2796   0.282   2.772   1.244
  851SOL    HW2 2797   0.140   2.789   1.196
  852SOL     OW 2798   1.481   2.886   0.204
  852SOL    HW1 2799   1.421   2.823   0.244
  852SOL    HW2 2800   1.567   2.865   0.241
  853SOL     OW 2801   1.182   3.677   1.627
  853SOL    HW1 2802   1.188   3.738   1.554
  853SOL    HW2 2803   1.201   3.591   1.588
  854SOL     OW 2804   0.363   2.112   1.837
  854SOL    HW1 2805   0.398   2.194   1.872
  854SOL    HW2 2806   0.268   2.119   1.853
  855SOL     OW 2807   1.466   3.283   0.944
  855SOL    HW1 2808   1.401   3.298   1.012
  855SOL    HW2 2809   1.455   3.191   0.919
  856SOL     OW 2810   1.648   3.621   0.582
  856SOL    HW1 2811   1.627   3.589   0.495
  856SOL    HW2 2812   1.633   3.546   0.640
  857SOL     OW 2813   0.604   2.577   0.264
  857SOL    HW1 2814   0.607   2.665   0.226
  857SOL    HW2 2815   0.542   2.584   0.337
  858SOL     OW 2816   1.278   2.230   0.934
  858SOL    HW1 2817   1.190   2.195   0.943
  858SOL    HW2 2818   1.332   2.176   0.992
  859SOL     OW 2819   1.578   3.542   0.321
  859SOL    HW1 2820   1.672   3.554   0.312
  859SOL    HW2 2821   1.545   3.540   0.231
  860SOL     OW 2822   0.790   2.481   1.446
  860SOL    HW1 2823   0.765   2.453   1.534
  860SOL    HW2 2824   0.758   2.410   1.389
  861SOL     OW 2825   1.392   2.336   1.678
  861SOL    HW1 2826   1.396   2.381   1.762
  861SOL    HW2 2827   1.448   2.260   1.688
  862SOL     OW 2828   0.948   2.746   1.587
  862SOL    HW1 2829   1.004   2.679   1.547
  862SOL    HW2 2830   0.900   2.784   1.513
  863SOL     OW 2831   0.995   2.271   1.231
  863SOL    HW1 2832   0.905   2.287   1.260
  863SOL    HW2 2833   0.986   2.228   1.146
  864SOL     OW 2834   1.057   2.562   0.425
  864SOL    HW1 2835   1.077   2.559   0.519
  864SOL    HW2 2836   0.973   2.517   0.417
  865SOL     OW 2837   0.100   2.675   0.776
  865SOL    HW1 2838   0.189   2.671   0.811
  865SOL    HW2 2839   0.046   2.702   0.849
  866SOL     OW 2840   0.109   3.730   1.593
  866SOL    HW1 2841   0.125   3.707   1.684
  866SOL    HW2 2842   0.018   3.706   1.578
  867SOL     OW 2843   0.890   2.207   0.206
  867SOL    HW1 2844   0.939   2.261   0.145
  867SOL    HW2 2845   0.910   2.117   0.181
  868SOL     OW 2846   1.701   2.432   1.831
  868SOL    HW1 2847   1.668   2.506   1.781
  868SOL    HW2 2848   1.730   2.369   1.765
  869SOL     OW 2849   1.386   3.003   0.556
  869SOL    HW1 2850   1.465   2.992   0.502
  869SOL    HW2 2851   1.332   3.064   0.506
  870SOL     OW 2852   0.558   2.043   0.899
  870SOL    HW1 2853   0.562   2.068   0.991
  870SOL    HW2 2854   0.560   2.126   0.851
  871SOL     OW 2855   0.992   3.300   0.475
  871SOL    HW1 2856   0.966   3.378   0.425
  871SOL    HW2 2857   0.967   3.320   0.565
  872SOL     OW 2858   0.355   3.680   0.867
  872SOL    HW1 2859   0.394   3.593   0.878
  872SOL    HW2 2860   0.425   3.741   0.893
  873SOL     OW 2861   1.803   2.907   0.877
  873SOL    HW1 2862   1.753   2.892   0.797
  873SOL    HW2 2863   1.737   2.916   0.946
  874SOL     OW 2864   1.226   3.403   1.514
  874SOL    HW1 2865   1.214   3.331   1.575
  874SOL    HW2 2866   1.158   3.389   1.448
  875SOL     OW 2867   0.305   2.800   0.219
  875SOL    HW1 2868   0.394   2.817   0.190
  875SOL    HW2 2869   0.289   2.708   0.198
  876SOL     OW 2870   1.484   2.610   0.720
  876SOL    HW1 2871   1.483   2.574   0.809
  876SOL    HW2 2872   1.561   2.666   0.718
  877SOL     OW 2873   0.474   3.127   1.735
  877SOL    HW1 2874   0.448   3.135   1.643
  877SOL    HW2 2875   0.391   3.127   1.783
  878SOL     OW 2876   1.122   3.633   0.234
  878SOL    HW1 2877   1.057   3.588   0.287
  878SOL    HW2 2878   1.154   3.566   0.173
  879SOL     OW 2879   0.196   2.118   1.486
  879SOL    HW1 2880   0.118   2.173   1.487
  879SOL    HW2 2881   0.169   2.038   1.531
  880SOL     OW 2882   1.627   3.297   0.075
  880SOL    HW1 2883   1.586   3.384   0.079
  880SOL    HW2 2884   1.576   3.244   0.137
  881SOL     OW 2885   0.473   3.577   0.354
  881SOL    HW1 2886   0.511   3.644   0.411
  881SOL    HW2 2887   0.548   3.543   0.305
  882SOL     OW 2888   1.403   1.970   0.450
  882SOL    HW1 2889   1.400   1.943   0.359
  882SOL    HW2 2890   1.497   1.979   0.469
  883SOL     OW 2891   0.256   3.654   1.223
  883SOL    HW1 2892   0.303   3.579   1.259
  883SOL    HW2 2893   0.211   3.619   1.146
  884SOL     OW 2894   0.941   3.563   0.896
  884SOL    HW1 2895   1.021   3.515   0.917
  884SOL    HW2 2896   0.899   3.511   0.827
  885SOL     OW 2897   0.405   2.554   0.464
  885SOL    HW1 2898   0.419   2.461   0.482
  885SOL    HW2 2899   0.312   2.568   0.484
  886SOL     OW 2900   1.525   2.086   1.723
  886SOL    HW1 2901   1.536   2.106   1.816
  886SOL    HW2 2902   1.457   2.019   1.721
  887SOL     OW 2903   0.763   2.141   1.756
  887SOL    HW1 2904   0.844   2.091   1.752
  887SOL    HW2 2905   0.716   2.106   1.831
  888SOL     OW 2906   0.877   3.386   1.195
  888SOL    HW1 2907   0.859   3.348   1.109
  888SOL    HW2 2908   0.946   3.331   1.232
  889SOL     OW 2909   1.337   2.452   1.433
  889SOL    HW1 2910   1.369   2.421   1.518
  889SOL    HW2 2911   1.375   2.539   1.424
  890SOL     OW 2912   0.819   3.249   0.950
  890SOL    HW1 2913   0.904   3.239   0.906
  890SOL    HW2 2914   0.756   3.257   0.878
  891SOL     OW 2915   0.929   2.370   0.900
  891SOL    HW1 2916   0.903   2.360   0.809
  891SOL    HW2 2917   0.960   2.283   0.926
  892SOL     OW 2918   0.556   1.929   0.501
  892SOL    HW1 2919   0.477   1.933   0.556
  892SOL    HW2 2920   0.544   2.000   0.438
  893SOL     OW 2921   1.407   3.073   0.001
  893SOL    HW1 2922   1.439   3.001   0.057
  893SOL    HW2 2923   1.335   3.112   0.050
  894SOL     OW 2924   0.946   2.112   0.462
  894SOL    HW1 2925   0.920   2.151   0.379
  894SOL    HW2 2926   1.040   2.126   0.467
  895SOL     OW 2927   1.081   2.548   1.456
  895SOL    HW1 2928   1.017   2.476   1.460
  895SOL    HW2 2929   1.166   2.504   1.451
  896SOL     OW 2930   1.215   3.437   0.797
  896SOL    HW1 2931   1.230   3.500   0.727
  896SOL    HW2 2932   1.288   3.449   0.857
  897SOL     OW 2933   0.474   3.015   0.733
  897SOL    HW1 2934   0.408   2.994   0.799
  897SOL    HW2 2935   0.430   2.997   0.649
  898SOL     OW 2936   1.262   3.653   0.613
  898SOL    HW1 2937   1.313   3.717   0.562
  898SOL    HW2 2938   1.193   3.706   0.654
  899SOL     OW 2939   1.068   2.454   0.028
  899SOL    HW1 2940   0.977   2.467   0.053
  899SOL    HW2 2941   1.113   2.434   0.110
  900SOL     OW 2942   0.069   2.416   1.373
  900SOL    HW1 2943   0.162   2.408   1.351
  900SOL    HW2 2944   0.067   2.481   1.443
  901SOL     OW 2945   0.568   2.087   1.171
  901SOL    HW1 2946   0.611   2.015   1.218
  901SOL    HW2 2947   0.476   2.083   1.199
  902SOL     OW 2948   0.863   2.316   0.641
  902SOL    HW1 2949   0.829   2.373   0.573
  902SOL    HW2 2950   0.890   2.236   0.594
  903SOL     OW 2951   1.017   1.917   0.746
  903SOL    HW1 2952   0.957   1.910   0.672
  903SOL    HW2 2953   0.994   1.843   0.802
  904SOL     OW 2954   1.442   3.022   0.859
  904SOL    HW1 2955   1.370   2.959   0.857
  904SOL    HW2 2956   1.471   3.030   0.768
  905SOL     OW 2957   1.466   2.473   0.966
  905SOL    HW1 2958   1.408   2.397   0.970
  905SOL    HW2 2959   1.523   2.465   1.043
  906SOL     OW 2960   1.821   2.663   0.396
  906SOL    HW1 2961   1.884   2.604   0.436
  906SOL    HW2 2962   1.821   2.639   0.303
  907SOL     OW 2963   0.474   3.284   0.173
  907SOL    HW1 2964   0.437   3.216   0.229
  907SOL    HW2 2965   0.423   3.280   0.092
  908SOL     OW 2966   1.676   3.125   0.654
  908SOL    HW1 2967   1.771   3.124   0.665
  908SOL    HW2 2968   1.652   3.216   0.666
  909SOL     OW 2969   1.389   2.414   0.062
  909SOL    HW1 2970   1.333   2.410   0.140
  909SOL    HW2 2971   1.445   2.336   0.069
  910SOL     OW 2972   0.511   2.116   0.310
  910SOL    HW1 2973   0.526   2.062   0.233
  910SOL    HW2 2974   0.487   2.202   0.275
  911SOL     OW 2975   1.747   3.105   1.559
  911SOL    HW1 2976   1.835   3.067   1.549
  911SOL    HW2 2977   1.762   3.194   1.589
  912SOL     OW 2978   1.053   3.216   1.332
  912SOL    HW1 2979   0.977   3.184   1.381
  912SOL    HW2 2980   1.128   3.173   1.373
  913SOL     OW 2981   1.610   3.491   1.660
  913SOL    HW1 2982   1.600   3.525   1.571
  913SOL    HW2 2983   1.691   3.440   1.658
  914SOL     OW 2984   1.137   3.076   1.102
  914SOL    HW1 2985   1.076   3.113   1.165
  914SOL    HW2 2986   1.108   3.110   1.017
  915SOL     OW 2987   1.620   2.956   1.076
  915SOL    HW1 2988   1.612   3.020   1.146
  915SOL    HW2 2989   1.547   2.976   1.017
  916SOL     OW 2990   0.918   1.954   1.390
  916SOL    HW1 2991   0.941   1.935   1.299
  916SOL    HW2 2992   0.997   1.993   1.427
  917SOL     OW 2993   0.985   2.977   1.722
  917SOL    HW1 2994   0.894   2.994   1.747
  917SOL    HW2 2995   0.981   2.898   1.669
  918SOL     OW 2996   0.712   2.923   0.374
  918SOL    HW1 2997   0.697   2.903   0.466
  918SOL    HW2 2998   0.788   2.871   0.349
  919SOL     OW 2999   0.430   2.670   1.246
  919SOL    HW1 3000   0.495   2.683   1.315
  919SOL    HW2 3001   0.392   2.584   1.265
  920SOL     OW 3002   1.263   2.235   1.283
  920SOL    HW1 3003   1.295   2.314   1.327
  920SOL    HW2 3004   1.172   2.256   1.260
  921SOL     OW 3005   0.067   3.427   1.328
  921SOL    HW1 3006   0.024   3.510   1.349
  921SOL    HW2 3007   0.160   3.444   1.344
  922SOL     OW 3008   0.354   2.956   0.495
  922SOL    HW1 3009   0.334   3.026   0.433
  922SOL    HW2 3010   0.355   2.876   0.442
  923SOL     OW 3011   0.546   2.388   0.855
  923SOL    HW1 3012   0.560   2.450   0.783
  923SOL    HW2 3013   0.611   2.413   0.920
  924SOL     OW 3014   1.242   3.201   0.408
  924SOL    HW1 3015   1.296   3.274   0.435
  924SOL    HW2 3016   1.154   3.223   0.439
  925SOL     OW 3017   1.292   3.324   1.149
  925SOL    HW1 3018   1.347   3.329   1.227
  925SOL    HW2 3019   1.238   3.246   1.163
  926SOL     OW 3020   1.590   2.490   0.479
  926SOL    HW1 3021   1.533   2.531   0.544
  926SOL    HW2 3022   1.646   2.561   0.448
  927SOL     OW 3023   0.348   3.397   1.308
  927SOL    HW1 3024   0.334   3.349   1.226
  927SOL    HW2 3025   0.443   3.407   1.314
  928SOL     OW 3026   0.428   2.596   1.604
  928SOL    HW1 3027   0.487   2.644   1.546
  928SOL    HW2 3028   0.475   2.515   1.623
  929SOL     OW 3029   1.611   2.644   1.688
  929SOL    HW1 3030   1.525   2.685   1.682
  929SOL    HW2 3031   1.663   2.685   1.619
  930SOL     OW 3032   0.996   1.997   1.753
  930SOL    HW1 3033   1.054   2.070   1.733
  930SOL    HW2 3034   1.045   1.919   1.728
  931SOL     OW 3035   0.502   1.895   1.750
  931SOL    HW1 3036   0.451   1.847   1.684
  931SOL    HW2 3037   0.449   1.972   1.769
  932SOL     OW 3038   0.590   2.735   1.030
  932SOL    HW1 3039   0.621   2.826   1.032
  932SOL    HW2 3040   0.534   2.727   1.107
  933SOL     OW 3041   1.344   2.720   1.020
  933SOL    HW1 3042   1.259   2.704   0.979
  933SOL    HW2 3043   1.391   2.638   1.009
  934SOL     OW 3044   1.196   2.382   0.267
  934SOL    HW1 3045   1.210   2.307   0.325
  934SOL    HW2 3046   1.160   2.450   0.324
  935SOL     OW 3047   0.310   2.055   1.243
  935SOL    HW1 3048   0.269   2.084   1.325
  935SOL    HW2 3049   0.291   1.961   1.239
  936SOL     OW 3050   0.088   3.169   1.258
  936SOL    HW1 3051   0.101   3.111   1.333
  936SOL    HW2 3052   0.084   3.257   1.296
  937SOL     OW 3053   0.715   2.487   1.048
  937SOL    HW1 3054   0.795   2.476   0.996
  937SOL    HW2 3055   0.689   2.577   1.033
  938SOL     OW 3056   1.742   2.821   1.861
  938SOL    HW1 3057   1.699   2.753   1.809
  938SOL    HW2 3058   1.680   2.840   1.931
  939SOL     OW 3059   0.312   1.936   0.628
  939SOL    HW1 3060   0.291   2.025   0.653
  939SOL    HW2 3061   0.321   1.889   0.711
  940SOL     OW 3062   1.628   2.245   0.362
  940SOL    HW1 3063   1.646   2.181   0.431
  940SOL    HW2 3064   1.605   2.325   0.410
  941SOL     OW 3065   1.028   2.619   0.957
  941SOL    HW1 3066   1.018   2.636   1.051
  941SOL    HW2 3067   1.002   2.528   0.947
  942SOL     OW 3068   0.981   3.428   1.723
  942SOL    HW1 3069   0.964   3.472   1.640
  942SOL    HW2 3070   1.025   3.346   1.699
  943SOL     OW 3071   1.850   3.362   1.604
  943SOL    HW1 3072   1.872   3.390   1.515
  943SOL    HW2 3073   1.930   3.375   1.654
  944SOL     OW 3074   0.361   2.768   1.813
  944SOL    HW1 3075   0.440   2.796   1.859
  944SOL    HW2 3076   0.392   2.706   1.747
  945SOL     OW 3077   1.477   2.161   0.145
  945SOL    HW1 3078   1.449   2.071   0.160
  945SOL    HW2 3079   1.532   2.183   0.220
  946SOL     OW 3080   1.292   2.680   0.041
  946SOL    HW1 3081   1.336   2.596   0.025
  946SOL    HW2 3082   1.314   2.734   6.965
  947SOL     OW 3083   1.069   3.202   0.858
  947SOL    HW1 3084   1.076   3.130   0.795
  947SOL    HW2 3085   1.126   3.270   0.822
  948SOL     OW 3086   0.320   2.664   0.942
  948SOL    HW1 3087   0.414   2.685   0.943
  948SOL    HW2 3088   0.315   2.577   0.981
  949SOL     OW 3089   0.329   2.385   1.016
  949SOL    HW1 3090   0.292   2.298   1.002
  949SOL    HW2 3091   0.404   2.389   0.958
  950SOL     OW 3092   1.134   2.234   1.687
  950SOL    HW1 3093   1.087   2.287   1.750
  950SOL    HW2 3094   1.221   2.274   1.681
  951SOL     OW 3095   1.160   2.058   1.473
  951SOL    HW1 3096   1.149   2.121   1.544
  951SOL    HW2 3097   1.203   2.108   1.403
  952SOL     OW 3098   0.001   3.162   0.221
  952SOL    HW1 3099   6.935   3.182   0.288
  952SOL    HW2 3100   0.023   3.070   0.236
  953SOL     OW 3101   0.096   3.611   0.956
  953SOL    HW1 3102   0.080   3.541   0.893
  953SOL    HW2 3103   0.176   3.654   0.925
  954SOL     OW 3104   0.490   3.439   0.902
  954SOL    HW1 3105   0.559   3.501   0.926
  954SOL    HW2 3106   0.534   3.374   0.846
  955SOL     OW 3107   0.969   2.647   1.223
  955SOL    HW1 3108   1.032   2.630   1.293
  955SOL    HW2 3109   0.887   2.609   1.254
  956SOL     OW 3110   0.051   2.473   1.102
  956SOL    HW1 3111   0.130   2.430   1.068
  956SOL    HW2 3112   0.051   2.450   1.195
  957SOL     OW 3113   0.205   2.361   1.707
  957SOL    HW1 3114   0.287   2.327   1.672
  957SOL    HW2 3115   0.197   2.449   1.668
  958SOL     OW 3116   1.382   2.794   1.656
  958SOL    HW1 3117   1.403   2.887   1.652
  958SOL    HW2 3118   1.378   2.766   1.565
  959SOL     OW 3119   0.819   2.427   0.379
  959SOL    HW1 3120   0.826   2.357   0.315
  959SOL    HW2 3121   0.748   2.483   0.346
  960SOL     OW 3122   1.640   2.462   1.178
  960SOL    HW1 3123   1.631   2.404   1.253
  960SOL    HW2 3124   1.728   2.444   1.145
  961SOL     OW 3125   0.281   3.422   1.733
  961SOL    HW1 3126   0.229   3.483   1.786
  961SOL    HW2 3127   0.264   3.336   1.771
  962SOL     OW 3128   0.716   2.307   1.251
  962SOL    HW1 3129   0.660   2.233   1.227
  962SOL    HW2 3130   0.705   2.370   1.180
  963SOL     OW 3131   0.920   3.540   1.473
  963SOL    HW1 3132   0.897   3.500   1.389
  963SOL    HW2 3133   0.914   3.634   1.456
  964SOL     OW 3134   0.461   2.355   0.192
  964SOL    HW1 3135   0.520   2.428   0.214
  964SOL    HW2 3136   0.374   2.396   0.188
  965SOL     OW 3137   0.162   2.990   1.465
  965SOL    HW1 3138   0.153   2.928   1.538
  965SOL    HW2 3139   0.174   2.935   1.388
  966SOL     OW 3140   1.317   2.904   1.219
  966SOL    HW1 3141   1.339   2.841   1.150
  966SOL    HW2 3142   1.253   2.963   1.179
  967SOL     OW 3143   1.300   2.707   0.314
  967SOL    HW1 3144   1.223   2.670   0.356
  967SOL    HW2 3145   1.290   2.686   0.221
  968SOL     OW 3146   1.783   3.597   1.160
  968SOL    HW1 3147   1.842   3.622   1.090
  968SOL    HW2 3148   1.753   3.509   1.136
  969SOL     OW 3149   1.239   3.595   1.104
  969SOL    HW1 3150   1.322   3.620   1.063
  969SOL    HW2 3151   1.250   3.502   1.125
  970SOL     OW 3152   0.066   3.101   0.999
  970SOL    HW1 3153   0.082   3.122   1.091
  970SOL    HW2 3154   6.971   3.091   0.993
  971SOL     OW 3155   0.681   3.535   1.741
  971SOL    HW1 3156   0.619   3.607   1.733
  971SOL    HW2 3157   0.749   3.553   1.677
  972SOL     OW 3158   0.936   1.944   0.111
  972SOL    HW1 3159   1.006   1.994   0.068
  972SOL    HW2 3160   0.982   1.882   0.167
  973SOL     OW 3161   1.705   2.022   0.516
  973SOL    HW1 3162   1.781   2.012   0.458
  973SOL    HW2 3163   1.694   1.935   0.555
  974SOL     OW 3164   1.388   3.425   0.495
  974SOL    HW1 3165   1.449   3.455   0.428
  974SOL    HW2 3166   1.341   3.504   0.522
  975SOL     OW 3167   0.141   3.648   1.854
  975SOL    HW1 3168   0.100   3.580   1.907
  975SOL    HW2 3169   0.189   3.702   1.917
  976SOL     OW 3170   1.278   2.787   0.675
  976SOL    HW1 3171   1.352   2.726   0.683
  976SOL    HW2 3172   1.313   2.860   0.624
  977SOL     OW 3173   0.802   3.140   1.422
  977SOL    HW1 3174   0.775   3.182   1.504
  977SOL    HW2 3175   0.730   3.159   1.361
  978SOL     OW 3176   0.672   3.473   0.195
  978SOL    HW1 3177   0.675   3.513   0.108
  978SOL    HW2 3178   0.618   3.394   0.182
  979SOL     OW 3179   1.618   3.590   1.393
  979SOL    HW1 3180   1.673   3.594   1.314
  979SOL    HW2 3181   1.604   3.682   1.416
  980SOL     OW 3182   1.843   2.031   0.965
  980SOL    HW1 3183   1.872   1.943   0.942
  980SOL    HW2 3184   1.756   2.039   0.926
  981SOL     OW 3185   0.262   2.184   0.722
  981SOL    HW1 3186   0.191   2.247   0.704
  981SOL    HW2 3187   0.256   2.167   0.816
  982SOL     OW 3188   1.216   3.456   0.040
  982SOL    HW1 3189   1.210   3.364   0.067
  982SOL    HW2 3190   1.132   3.474   6.999
  983SOL     OW 3191   0.824   2.870   1.376
  983SOL    HW1 3192   0.865   2.863   1.290
  983SOL    HW2 3193   0.819   2.964   1.393
  984SOL     OW 3194   0.921   2.776   0.290
  984SOL    HW1 3195   0.973   2.804   0.215
  984SOL    HW2 3196   0.975   2.710   0.334
  985SOL     OW 3197   1.476   3.537   0.052
  985SOL    HW1 3198   1.386   3.506   0.044
  985SOL    HW2 3199   1.510   3.534   6.962
  986SOL     OW 3200   0.373   3.171   1.491
  986SOL    HW1 3201   0.358   3.248   1.436
  986SOL    HW2 3202   0.306   3.109   1.464
  987SOL     OW 3203   1.605   3.146   1.278
  987SOL    HW1 3204   1.666   3.130   1.351
  987SOL    HW2 3205   1.546   3.213   1.312
  988SOL     OW 3206   1.064   2.973   0.713
  988SOL    HW1 3207   0.991   2.923   0.749
  988SOL    HW2 3208   1.127   2.906   0.687
  989SOL     OW 3209   1.025   2.104   0.966
  989SOL    HW1 3210   1.022   2.058   0.882
  989SOL    HW2 3211   1.020   2.035   1.032
  990SOL     OW 3212   0.615   3.343   0.485
  990SOL    HW1 3213   0.655   3.298   0.411
  990SOL    HW2 3214   0.535   3.382   0.449
  991SOL     OW 3215   1.729   2.253   1.381
  991SOL    HW1 3216   1.801   2.316   1.381
  991SOL    HW2 3217   1.758   2.183   1.323
  992SOL     OW 3218   0.281   3.159   0.331
  992SOL    HW1 3219   0.191   3.160   0.297
  992SOL    HW2 3220   0.280   3.222   0.403
  993SOL     OW 3221   0.124   2.835   1.701
  993SOL    HW1 3222   0.074   2.884   1.766
  993SOL    HW2 3223   0.208   2.818   1.742
  994SOL     OW 3224   0.677   2.058   1.498
  994SOL    HW1 3225   0.762   2.034   1.460
  994SOL    HW2 3226   0.699   2.089   1.586
  995SOL     OW 3227   0.066   2.252   0.016
  995SOL    HW1 3228   6.980   2.248   6.975
  995SOL    HW2 3229   0.125   2.275   6.944
  996SOL     OW 3230   1.424   2.718   1.396
  996SOL    HW1 3231   1.373   2.779   1.342
  996SOL    HW2 3232   1.512   2.721   1.359
  997SOL     OW 3233   0.033   2.056   0.365
  997SOL    HW1 3234   0.073   2.140   0.344
  997SOL    HW2 3235   0.106   1.998   0.385
  998SOL     OW 3236   1.187   3.200   0.130
  998SOL    HW1 3237   1.093   3.185   0.117
  998SOL    HW2 3238   1.201   3.191   0.224
  999SOL     OW 3239   0.622   2.694   1.436
  999SOL    HW1 3240   0.678   2.770   1.422
  999SOL    HW2 3241   0.682   2.620   1.442
 1000SOL     OW 3242   1.483   3.650   0.985
 1000SOL    HW1 3243   1.507   3.717   0.920
 1000SOL    HW2 3244   1.566   3.616   1.016
 1001SOL     OW 3245   0.715   2.421   1.699
 1001SOL    HW1 3246   0.761   2.479   1.759
 1001SOL    HW2 3247   0.732   2.333   1.731
 1002SOL     OW 3248   1.474   3.054   1.627
 1002SOL    HW1 3249   1.463   3.071   1.721
 1002SOL    HW2 3250   1.566   3.075   1.610
 1003SOL     OW 3251   0.368   3.614   1.562
 1003SOL    HW1 3252   0.281   3.652   1.547
 1003SOL    HW2 3253   0.350   3.533   1.609
 1004SOL     OW 3254   1.662   2.741   1.255
 1004SOL    HW1 3255   1.660   2.656   1.211
 1004SOL    HW2 3256   1.652   2.805   1.185
 1005SOL     OW 3257   1.217   2.178   0.459
 1005SOL    HW1 3258   1.280   2.105   0.455
 1005SOL    HW2 3259   1.245   2.229   0.535
 1006SOL     OW 3260   0.586   2.593   0.672
 1006SOL    HW1 3261   0.627   2.679   0.665
 1006SOL    HW2 3262   0.523   2.590   0.600
 1007SOL     OW 3263   1.754   2.225   1.655
 1007SOL    HW1 3264   1.742   2.242   1.561
 1007SOL    HW2 3265   1.681   2.169   1.679
 1008SOL     OW 3266   1.751   2.794   1.510
 1008SOL    HW1 3267   1.738   2.888   1.523
 1008SOL    HW2 3268   1.731   2.780   1.418
 1009SOL     OW 3269   0.907   3.242   0.057
 1009SOL    HW1 3270   0.845   3.224   0.128
 1009SOL    HW2 3271   0.904   3.338   0.047
 1010SOL     OW 3272   0.664   3.646   0.934
 1010SOL    HW1 3273   0.649   3.739   0.916
 1010SOL    HW2 3274   0.760   3.636   0.931
 1011SOL     OW 3275   0.870   2.834   0.854
 1011SOL    HW1 3276   0.919   2.761   0.891
 1011SOL    HW2 3277   0.830   2.877   0.930
 1012SOL     OW 3278   1.080   2.848   0.074
 1012SOL    HW1 3279   1.104   2.907   0.003
 1012SOL    HW2 3280   1.149   2.782   0.075
 1013SOL     OW 3281   1.846   3.416   0.839
 1013SOL    HW1 3282   1.766   3.402   0.788
 1013SOL    HW2 3283   1.845   3.346   0.905
 1014SOL     OW 3284   0.237   3.170   1.864
 1014SOL    HW1 3285   0.147   3.139   1.855
 1014SOL    HW2 3286   0.250   3.179   1.958
 1015SOL     OW 3287   0.148   3.147   0.702
 1015SOL    HW1 3288   0.116   3.104   0.782
 1015SOL    HW2 3289   0.154   3.077   0.638
 1016SOL     OW 3290   0.688   3.271   1.633
 1016SOL    HW1 3291   0.608   3.229   1.664
 1016SOL    HW2 3292   0.685   3.360   1.669
 1017SOL     OW 3293   1.810   2.042   1.236
 1017SOL    HW1 3294   1.816   1.947   1.248
 1017SOL    HW2 3295   1.823   2.055   1.142
 1018SOL     OW 3296   0.428   2.291   0.521
 1018SOL    HW1 3297   0.484   2.223   0.484
 1018SOL    HW2 3298   0.398   2.255   0.604
 1019SOL     OW 3299   1.693   3.349   1.093
 1019SOL    HW1 3300   1.616   3.329   1.040
 1019SOL    HW2 3301   1.697   3.278   1.157
 1020SOL     OW 3302   0.332   2.418   1.297
 1020SOL    HW1 3303   0.384   2.360   1.354
 1020SOL    HW2 3304   0.351   2.386   1.209
 1021SOL     OW 3305   0.831   3.441   0.678
 1021SOL    HW1 3306   0.810   3.505   0.610
 1021SOL    HW2 3307   0.757   3.380   0.679
 1022SOL     OW 3308   1.428   2.093   1.116
 1022SOL    HW1 3309   1.447   2.008   1.157
 1022SOL    HW2 3310   1.378   2.141   1.182
 1023SOL     OW 3311   1.009   1.878   1.133
 1023SOL    HW1 3312   0.954   1.812   1.090
 1023SOL    HW2 3313   1.096   1.839   1.136
 1024SOL     OW 3314   0.782   3.185   0.310
 1024SOL    HW1 3315   0.752   3.096   0.328
 1024SOL    HW2 3316   0.857   3.197   0.367
 1025SOL     OW 3317   0.622   3.419   1.287
 1025SOL    HW1 3318   0.621   3.501   1.336
 1025SOL    HW2 3319   0.710   3.413   1.251
 1026SOL     OW 3320   1.367   1.906   0.185
 1026SOL    HW1 3321   1.405   1.839   0.128
 1026SOL    HW2 3322   1.276   1.878   0.198
 1027SOL     OW 3323   1.294   2.325   0.677
 1027SOL    HW1 3324   1.243   2.407   0.681
 1027SOL    HW2 3325   1.290   2.290   0.766
 1028SOL     OW 3326   1.584   2.056   0.884
 1028SOL    HW1 3327   1.529   2.082   0.958
 1028SOL    HW2 3328   1.584   2.133   0.826
 1029SOL     OW 3329   0.071   2.914   0.312
 1029SOL    HW1 3330   0.155   2.873   0.295
 1029SOL    HW2 3331   0.008   2.842   0.312
 1030SOL     OW 3332   0.895   3.524   0.351
 1030SOL    HW1 3333   0.820   3.502   0.297
 1030SOL    HW2 3334   0.865   3.598   0.405
 1031SOL     OW 3335   0.227   2.135   2.850
 1031SOL    HW1 3336   0.276   2.099   2.924
 1031SOL    HW2 3337   0.136   2.118   2.871
 1032SOL     OW 3338   6.987   2.247   2.512
 1032SOL    HW1 3339   6.941   2.243   2.596
 1032SOL    HW2 3340   0.015   2.157   2.496
 1033SOL     OW 3341   0.570   3.161   3.049
 1033SOL    HW1 3342   0.485   3.167   3.006
 1033SOL    HW2 3343   0.587   3.250   3.081
 1034SOL     OW 3344   1.574   3.378   2.571
 1034SOL    HW1 3345   1.530   3.354   2.653
 1034SOL    HW2 3346   1.503   3.381   2.506
 1035SOL     OW 3347   1.134   2.561   2.556
 1035SOL    HW1 3348   1.181   2.643   2.543
 1035SOL    HW2 3349   1.086   2.573   2.638
 1036SOL     OW 3350   1.780   2.459   2.087
 1036SOL    HW1 3351   1.752   2.455   1.995
 1036SOL    HW2 3352   1.739   2.383   2.128
 1037SOL     OW 3353   0.741   2.998   2.910
 1037SOL    HW1 3354   0.677   3.037   2.969
 1037SOL    HW2 3355   0.783   3.073   2.867
 1038SOL     OW 3356   0.876   2.621   3.686
 1038SOL    HW1 3357   0.868   2.691   3.751
 1038SOL    HW2 3358   0.897   2.666   3.605
 1039SOL     OW 3359   0.684   2.859   2.507
 1039SOL    HW1 3360   0.752   2.852   2.575
 1039SOL    HW2 3361   0.616   2.914   2.547
 1040SOL     OW 3362   0.715   3.010   3.684
 1040SOL    HW1 3363   0.764   3.087   3.715
 1040SOL    HW2 3364   0.637   3.047   3.643
 1041SOL     OW 3365   0.338   3.278   2.927
 1041SOL    HW1 3366   0.264   3.242   2.878
 1041SOL    HW2 3367   0.383   3.335   2.865
 1042SOL     OW 3368   1.459   3.365   3.225
 1042SOL    HW1 3369   1.513   3.443   3.234
 1042SOL    HW2 3370   1.390   3.376   3.290
 1043SOL     OW 3371   0.442   2.253   3.354
 1043SOL    HW1 3372   0.520   2.198   3.358
 1043SOL    HW2 3373   0.369   2.192   3.363
 1044SOL     OW 3374   1.603   2.303   2.608
 1044SOL    HW1 3375   1.532   2.320   2.546
 1044SOL    HW2 3376   1.602   2.378   2.667
 1045SOL     OW 3377   0.224   3.570   2.329
 1045SOL    HW1 3378   0.241   3.648   2.382
 1045SOL    HW2 3379   0.291   3.572   2.261
 1046SOL     OW 3380   1.138   3.204   3.556
 1046SOL    HW1 3381   1.179   3.197   3.642
 1046SOL    HW2 3382   1.086   3.124   3.548
 1047SOL     OW 3383   0.285   3.304   2.380
 1047SOL    HW1 3384   0.259   3.395   2.387
 1047SOL    HW2 3385   0.240   3.260   2.452
 1048SOL     OW 3386   0.272   2.945   2.764
 1048SOL    HW1 3387   0.268   2.854   2.793
 1048SOL    HW2 3388   0.200   2.988   2.811
 1049SOL     OW 3389   0.602   3.655   3.288
 1049SOL    HW1 3390   0.519   3.639   3.333
 1049SOL    HW2 3391   0.627   3.744   3.315
 1050SOL     OW 3392   0.578   2.852   2.004
 1050SOL    HW1 3393   0.628   2.896   1.935
 1050SOL    HW2 3394   0.619   2.881   2.086
 1051SOL     OW 3395   1.596   1.990   3.326
 1051SOL    HW1 3396   1.621   2.071   3.280
 1051SOL    HW2 3397   1.573   2.019   3.414
 1052SOL     OW 3398   0.134   2.476   2.435
 1052SOL    HW1 3399   0.067   2.412   2.459
 1052SOL    HW2 3400   0.119   2.549   2.494
 1053SOL     OW 3401   1.844   3.614   2.190
 1053SOL    HW1 3402   1.913   3.590   2.251
 1053SOL    HW2 3403   1.860   3.707   2.171
 1054SOL     OW 3404   0.035   3.456   2.010
 1054SOL    HW1 3405   0.026   3.362   2.024
 1054SOL    HW2 3406   6.952   3.493   2.038
 1055SOL     OW 3407   1.690   2.782   2.507
 1055SOL    HW1 3408   1.770   2.736   2.481
 1055SOL    HW2 3409   1.666   2.834   2.431
 1056SOL     OW 3410   1.651   2.965   2.292
 1056SOL    HW1 3411   1.737   2.964   2.251
 1056SOL    HW2 3412   1.658   3.029   2.362
 1057SOL     OW 3413   0.151   2.593   3.436
 1057SOL    HW1 3414   0.245   2.604   3.424
 1057SOL    HW2 3415   0.120   2.678   3.468
 1058SOL     OW 3416   0.616   3.254   2.599
 1058SOL    HW1 3417   0.571   3.170   2.608
 1058SOL    HW2 3418   0.600   3.280   2.509
 1059SOL     OW 3419   1.284   3.096   3.282
 1059SOL    HW1 3420   1.314   3.028   3.222
 1059SOL    HW2 3421   1.344   3.092   3.356
 1060SOL     OW 3422   0.821   1.867   2.377
 1060SOL    HW1 3423   0.861   1.951   2.352
 1060SOL    HW2 3424   0.728   1.886   2.382
 1061SOL     OW 3425   0.203   2.822   3.123
 1061SOL    HW1 3426   0.283   2.773   3.106
 1061SOL    HW2 3427   0.141   2.789   3.057
 1062SOL     OW 3428   1.531   2.863   2.062
 1062SOL    HW1 3429   1.462   2.805   2.095
 1062SOL    HW2 3430   1.574   2.896   2.141
 1063SOL     OW 3431   1.181   3.677   3.489
 1063SOL    HW1 3432   1.188   3.739   3.416
 1063SOL    HW2 3433   1.202   3.592   3.450
 1064SOL     OW 3434   0.361   2.112   3.701
 1064SOL    HW1 3435   0.399   2.194   3.733
 1064SOL    HW2 3436   0.267   2.122   3.717
 1065SOL     OW 3437   1.468   3.280   2.807
 1065SOL    HW1 3438   1.402   3.297   2.874
 1065SOL    HW2 3439   1.454   3.189   2.782
 1066SOL     OW 3440   1.653   3.620   2.437
 1066SOL    HW1 3441   1.634   3.585   2.350
 1066SOL    HW2 3442   1.635   3.547   2.497
 1067SOL     OW 3443   0.583   2.572   2.126
 1067SOL    HW1 3444   0.596   2.659   2.088
 1067SOL    HW2 3445   0.527   2.586   2.202
 1068SOL     OW 3446   1.279   2.231   2.797
 1068SOL    HW1 3447   1.190   2.197   2.805
 1068SOL    HW2 3448   1.332   2.176   2.855
 1069SOL     OW 3449   1.578   3.536   2.173
 1069SOL    HW1 3450   1.670   3.560   2.165
 1069SOL    HW2 3451   1.549   3.520   2.084
 1070SOL     OW 3452   0.791   2.480   3.309
 1070SOL    HW1 3453   0.765   2.453   3.397
 1070SOL    HW2 3454   0.759   2.410   3.252
 1071SOL     OW 3455   1.392   2.336   3.540
 1071SOL    HW1 3456   1.396   2.381   3.624
 1071SOL    HW2 3457   1.448   2.260   3.550
 1072SOL     OW 3458   0.948   2.746   3.449
 1072SOL    HW1 3459   1.004   2.679   3.409
 1072SOL    HW2 3460   0.900   2.784   3.375
 1073SOL     OW 3461   0.995   2.270   3.093
 1073SOL    HW1 3462   0.905   2.287   3.122
 1073SOL    HW2 3463   0.986   2.229   3.007
 1074SOL     OW 3464   1.053   2.560   2.285
 1074SOL    HW1 3465   1.072   2.553   2.379
 1074SOL    HW2 3466   0.969   2.515   2.275
 1075SOL     OW 3467   0.096   2.677   2.640
 1075SOL    HW1 3468   0.187   2.674   2.671
 1075SOL    HW2 3469   0.045   2.700   2.717
 1076SOL     OW 3470   0.109   3.730   3.455
 1076SOL    HW1 3471   0.125   3.707   3.547
 1076SOL    HW2 3472   0.018   3.706   3.439
 1077SOL     OW 3473   0.899   2.213   2.059
 1077SOL    HW1 3474   0.941   2.275   1.999
 1077SOL    HW2 3475   0.900   2.130   2.012
 1078SOL     OW 3476   1.702   2.431   3.693
 1078SOL    HW1 3477   1.668   2.505   3.643
 1078SOL    HW2 3478   1.730   2.368   3.626
 1079SOL     OW 3479   1.382   3.004   2.401
 1079SOL    HW1 3480   1.461   2.994   2.348
 1079SOL    HW2 3481   1.328   3.066   2.352
 1080SOL     OW 3482   0.555   2.038   2.759
 1080SOL    HW1 3483   0.560   2.069   2.850
 1080SOL    HW2 3484   0.556   2.118   2.706
 1081SOL     OW 3485   0.998   3.306   2.329
 1081SOL    HW1 3486   0.969   3.382   2.279
 1081SOL    HW2 3487   0.973   3.327   2.419
 1082SOL     OW 3488   0.353   3.682   2.729
 1082SOL    HW1 3489   0.394   3.597   2.740
 1082SOL    HW2 3490   0.423   3.745   2.751
 1083SOL     OW 3491   1.802   2.911   2.734
 1083SOL    HW1 3492   1.750   2.891   2.657
 1083SOL    HW2 3493   1.738   2.919   2.805
 1084SOL     OW 3494   1.226   3.403   3.376
 1084SOL    HW1 3495   1.214   3.331   3.437
 1084SOL    HW2 3496   1.157   3.391   3.311
 1085SOL     OW 3497   0.321   2.823   2.119
 1085SOL    HW1 3498   0.404   2.849   2.079
 1085SOL    HW2 3499   0.303   2.736   2.083
 1086SOL     OW 3500   1.482   2.613   2.582
 1086SOL    HW1 3501   1.480   2.574   2.669
 1086SOL    HW2 3502   1.560   2.669   2.582
 1087SOL     OW 3503   0.474   3.128   3.598
 1087SOL    HW1 3504   0.448   3.136   3.506
 1087SOL    HW2 3505   0.392   3.127   3.646
 1088SOL     OW 3506   1.126   3.640   2.090
 1088SOL    HW1 3507   1.049   3.602   2.133
 1088SOL    HW2 3508   1.150   3.576   2.023
 1089SOL     OW 3509   0.195   2.119   3.350
 1089SOL    HW1 3510   0.114   2.170   3.344
 1089SOL    HW2 3511   0.169   2.038   3.394
 1090SOL     OW 3512   1.630   3.245   1.955
 1090SOL    HW1 3513   1.588   3.330   1.940
 1090SOL    HW2 3514   1.562   3.181   1.933
 1091SOL     OW 3515   0.465   3.598   2.178
 1091SOL    HW1 3516   0.510   3.651   2.244
 1091SOL    HW2 3517   0.536   3.563   2.124
 1092SOL     OW 3518   1.399   1.968   2.305
 1092SOL    HW1 3519   1.391   1.943   2.213
 1092SOL    HW2 3520   1.494   1.974   2.320
 1093SOL     OW 3521   0.255   3.654   3.086
 1093SOL    HW1 3522   0.303   3.580   3.122
 1093SOL    HW2 3523   0.212   3.619   3.008
 1094SOL     OW 3524   0.940   3.563   2.757
 1094SOL    HW1 3525   1.019   3.515   2.780
 1094SOL    HW2 3526   0.900   3.511   2.687
 1095SOL     OW 3527   0.401   2.547   2.337
 1095SOL    HW1 3528   0.429   2.457   2.357
 1095SOL    HW2 3529   0.307   2.548   2.358
 1096SOL     OW 3530   1.525   2.086   3.585
 1096SOL    HW1 3531   1.537   2.106   3.678
 1096SOL    HW2 3532   1.456   2.020   3.583
 1097SOL     OW 3533   0.653   1.975   1.962
 1097SOL    HW1 3534   0.708   1.899   1.981
 1097SOL    HW2 3535   0.596   1.946   1.891
 1098SOL     OW 3536   0.762   2.141   3.618
 1098SOL    HW1 3537   0.844   2.091   3.614
 1098SOL    HW2 3538   0.716   2.106   3.694
 1099SOL     OW 3539   0.876   3.385   3.056
 1099SOL    HW1 3540   0.858   3.347   2.971
 1099SOL    HW2 3541   0.945   3.331   3.093
 1100SOL     OW 3542   1.337   2.452   3.295
 1100SOL    HW1 3543   1.369   2.421   3.380
 1100SOL    HW2 3544   1.375   2.539   3.286
 1101SOL     OW 3545   0.820   3.249   2.810
 1101SOL    HW1 3546   0.905   3.239   2.767
 1101SOL    HW2 3547   0.757   3.258   2.738
 1102SOL     OW 3548   0.930   2.371   2.761
 1102SOL    HW1 3549   0.905   2.362   2.669
 1102SOL    HW2 3550   0.959   2.283   2.786
 1103SOL     OW 3551   0.553   1.924   2.360
 1103SOL    HW1 3552   0.472   1.924   2.410
 1103SOL    HW2 3553   0.546   2.000   2.302
 1104SOL     OW 3554   1.429   3.064   1.900
 1104SOL    HW1 3555   1.458   2.989   1.952
 1104SOL    HW2 3556   1.343   3.087   1.937
 1105SOL     OW 3557   0.285   1.910   2.057
 1105SOL    HW1 3558   0.338   1.981   2.020
 1105SOL    HW2 3559   0.349   1.848   2.091
 1106SOL     OW 3560   0.944   2.112   2.317
 1106SOL    HW1 3561   0.919   2.149   2.232
 1106SOL    HW2 3562   1.038   2.127   2.324
 1107SOL     OW 3563   1.080   2.548   3.318
 1107SOL    HW1 3564   1.016   2.477   3.322
 1107SOL    HW2 3565   1.165   2.503   3.312
 1108SOL     OW 3566   1.218   3.436   2.657
 1108SOL    HW1 3567   1.232   3.500   2.588
 1108SOL    HW2 3568   1.287   3.454   2.721
 1109SOL     OW 3569   0.472   3.016   2.594
 1109SOL    HW1 3570   0.409   2.994   2.662
 1109SOL    HW2 3571   0.425   3.002   2.511
 1110SOL     OW 3572   1.262   3.653   2.475
 1110SOL    HW1 3573   1.311   3.716   2.421
 1110SOL    HW2 3574   1.193   3.706   2.516
 1111SOL     OW 3575   1.025   2.394   1.889
 1111SOL    HW1 3576   0.981   2.477   1.870
 1111SOL    HW2 3577   1.089   2.416   1.956
 1112SOL     OW 3578   0.070   2.415   3.235
 1112SOL    HW1 3579   0.163   2.408   3.213
 1112SOL    HW2 3580   0.067   2.481   3.304
 1113SOL     OW 3581   0.567   2.089   3.032
 1113SOL    HW1 3582   0.610   2.016   3.076
 1113SOL    HW2 3583   0.476   2.084   3.060
 1114SOL     OW 3584   0.866   2.319   2.500
 1114SOL    HW1 3585   0.818   2.374   2.438
 1114SOL    HW2 3586   0.889   2.241   2.449
 1115SOL     OW 3587   1.019   1.917   2.608
 1115SOL    HW1 3588   0.959   1.913   2.533
 1115SOL    HW2 3589   0.994   1.843   2.663
 1116SOL     OW 3590   1.440   3.021   2.719
 1116SOL    HW1 3591   1.368   2.958   2.720
 1116SOL    HW2 3592   1.463   3.029   2.626
 1117SOL     OW 3593   1.466   2.473   2.826
 1117SOL    HW1 3594   1.407   2.397   2.830
 1117SOL    HW2 3595   1.522   2.464   2.903
 1118SOL     OW 3596   1.839   2.671   2.248
 1118SOL    HW1 3597   1.899   2.622   2.306
 1118SOL    HW2 3598   1.816   2.608   2.180
 1119SOL     OW 3599   0.500   3.286   2.010
 1119SOL    HW1 3600   0.421   3.260   2.057
 1119SOL    HW2 3601   0.490   3.246   1.923
 1120SOL     OW 3602   1.679   3.127   2.502
 1120SOL    HW1 3603   1.773   3.126   2.518
 1120SOL    HW2 3604   1.652   3.216   2.525
 1121SOL     OW 3605   1.393   2.435   1.932
 1121SOL    HW1 3606   1.332   2.413   2.003
 1121SOL    HW2 3607   1.478   2.406   1.964
 1122SOL     OW 3608   0.532   2.118   2.171
 1122SOL    HW1 3609   0.583   2.073   2.103
 1122SOL    HW2 3610   0.501   2.198   2.128
 1123SOL     OW 3611   1.748   3.105   3.420
 1123SOL    HW1 3612   1.835   3.068   3.411
 1123SOL    HW2 3613   1.763   3.194   3.451
 1124SOL     OW 3614   1.053   3.214   3.192
 1124SOL    HW1 3615   0.977   3.183   3.242
 1124SOL    HW2 3616   1.128   3.173   3.235
 1125SOL     OW 3617   1.609   3.488   3.521
 1125SOL    HW1 3618   1.602   3.525   3.433
 1125SOL    HW2 3619   1.692   3.440   3.520
 1126SOL     OW 3620   1.136   3.073   2.963
 1126SOL    HW1 3621   1.077   3.112   3.027
 1126SOL    HW2 3622   1.108   3.110   2.879
 1127SOL     OW 3623   1.622   2.957   2.937
 1127SOL    HW1 3624   1.615   3.021   3.008
 1127SOL    HW2 3625   1.548   2.976   2.880
 1128SOL     OW 3626   0.918   1.954   3.252
 1128SOL    HW1 3627   0.941   1.936   3.161
 1128SOL    HW2 3628   0.997   1.993   3.289
 1129SOL     OW 3629   0.985   2.977   3.585
 1129SOL    HW1 3630   0.894   2.994   3.610
 1129SOL    HW2 3631   0.981   2.898   3.531
 1130SOL     OW 3632   0.710   2.924   2.236
 1130SOL    HW1 3633   0.696   2.904   2.328
 1130SOL    HW2 3634   0.785   2.871   2.211
 1131SOL     OW 3635   0.430   2.670   3.108
 1131SOL    HW1 3636   0.495   2.683   3.177
 1131SOL    HW2 3637   0.392   2.584   3.126
 1132SOL     OW 3638   1.263   2.236   3.145
 1132SOL    HW1 3639   1.295   2.314   3.189
 1132SOL    HW2 3640   1.172   2.256   3.122
 1133SOL     OW 3641   0.067   3.427   3.190
 1133SOL    HW1 3642   0.025   3.510   3.210
 1133SOL    HW2 3643   0.161   3.442   3.205
 1134SOL     OW 3644   0.334   2.982   2.358
 1134SOL    HW1 3645   0.345   3.057   2.299
 1134SOL    HW2 3646   0.334   2.906   2.300
 1135SOL     OW 3647   0.544   2.391   2.724
 1135SOL    HW1 3648   0.558   2.447   2.648
 1135SOL    HW2 3649   0.612   2.417   2.786
 1136SOL     OW 3650   1.246   3.212   2.253
 1136SOL    HW1 3651   1.302   3.283   2.286
 1136SOL    HW2 3652   1.159   3.234   2.286
 1137SOL     OW 3653   1.292   3.323   3.011
 1137SOL    HW1 3654   1.348   3.330   3.089
 1137SOL    HW2 3655   1.237   3.247   3.028
 1138SOL     OW 3656   1.577   2.480   2.347
 1138SOL    HW1 3657   1.527   2.526   2.415
 1138SOL    HW2 3658   1.619   2.550   2.297
 1139SOL     OW 3659   0.348   3.396   3.170
 1139SOL    HW1 3660   0.334   3.349   3.088
 1139SOL    HW2 3661   0.443   3.407   3.177
 1140SOL     OW 3662   0.429   2.595   3.465
 1140SOL    HW1 3663   0.488   2.643   3.407
 1140SOL    HW2 3664   0.476   2.514   3.484
 1141SOL     OW 3665   1.611   2.643   3.550
 1141SOL    HW1 3666   1.525   2.685   3.544
 1141SOL    HW2 3667   1.663   2.685   3.481
 1142SOL     OW 3668   0.996   1.997   3.616
 1142SOL    HW1 3669   1.054   2.070   3.595
 1142SOL    HW2 3670   1.045   1.919   3.591
 1143SOL     OW 3671   0.501   1.895   3.613
 1143SOL    HW1 3672   0.451   1.848   3.546
 1143SOL    HW2 3673   0.447   1.973   3.632
 1144SOL     OW 3674   0.591   2.736   2.893
 1144SOL    HW1 3675   0.622   2.827   2.896
 1144SOL    HW2 3676   0.534   2.727   2.969
 1145SOL     OW 3677   1.343   2.720   2.880
 1145SOL    HW1 3678   1.257   2.703   2.844
 1145SOL    HW2 3679   1.391   2.637   2.869
 1146SOL     OW 3680   1.198   2.389   2.123
 1146SOL    HW1 3681   1.207   2.310   2.177
 1146SOL    HW2 3682   1.156   2.453   2.180
 1147SOL     OW 3683   0.310   2.056   3.106
 1147SOL    HW1 3684   0.269   2.085   3.188
 1147SOL    HW2 3685   0.291   1.962   3.102
 1148SOL     OW 3686   0.088   3.169   3.120
 1148SOL    HW1 3687   0.102   3.111   3.195
 1148SOL    HW2 3688   0.084   3.257   3.158
 1149SOL     OW 3689   0.720   2.489   2.912
 1149SOL    HW1 3690   0.797   2.478   2.857
 1149SOL    HW2 3691   0.692   2.579   2.896
 1150SOL     OW 3692   1.742   2.821   3.723
 1150SOL    HW1 3693   1.698   2.753   3.671
 1150SOL    HW2 3694   1.680   2.840   3.793
 1151SOL     OW 3695   0.305   1.923   2.482
 1151SOL    HW1 3696   0.285   2.015   2.503
 1151SOL    HW2 3697   0.313   1.880   2.568
 1152SOL     OW 3698   1.624   2.243   2.220
 1152SOL    HW1 3699   1.652   2.177   2.283
 1152SOL    HW2 3700   1.599   2.318   2.273
 1153SOL     OW 3701   1.030   2.620   2.819
 1153SOL    HW1 3702   1.019   2.637   2.912
 1153SOL    HW2 3703   1.003   2.529   2.808
 1154SOL     OW 3704   0.981   3.428   3.585
 1154SOL    HW1 3705   0.965   3.472   3.502
 1154SOL    HW2 3706   1.025   3.346   3.561
 1155SOL     OW 3707   1.853   3.361   3.468
 1155SOL    HW1 3708   1.872   3.390   3.379
 1155SOL    HW2 3709   1.933   3.379   3.517
 1156SOL     OW 3710   0.366   2.780   3.664
 1156SOL    HW1 3711   0.443   2.802   3.716
 1156SOL    HW2 3712   0.397   2.714   3.602
 1157SOL     OW 3713   1.525   2.133   1.987
 1157SOL    HW1 3714   1.462   2.067   2.017
 1157SOL    HW2 3715   1.560   2.171   2.067
 1158SOL     OW 3716   1.285   2.686   1.889
 1158SOL    HW1 3717   1.328   2.601   1.894
 1158SOL    HW2 3718   1.319   2.725   1.808
 1159SOL     OW 3719   1.071   3.203   2.720
 1159SOL    HW1 3720   1.077   3.131   2.657
 1159SOL    HW2 3721   1.128   3.271   2.684
 1160SOL     OW 3722   0.320   2.666   2.803
 1160SOL    HW1 3723   0.414   2.685   2.803
 1160SOL    HW2 3724   0.314   2.578   2.841
 1161SOL     OW 3725   0.324   2.386   2.878
 1161SOL    HW1 3726   0.289   2.298   2.862
 1161SOL    HW2 3727   0.402   2.390   2.822
 1162SOL     OW 3728   1.135   2.234   3.549
 1162SOL    HW1 3729   1.086   2.287   3.611
 1162SOL    HW2 3730   1.221   2.274   3.543
 1163SOL     OW 3731   1.160   2.058   3.335
 1163SOL    HW1 3732   1.149   2.121   3.406
 1163SOL    HW2 3733   1.203   2.109   3.265
 1164SOL     OW 3734   6.993   3.188   2.082
 1164SOL    HW1 3735   6.923   3.209   2.143
 1164SOL    HW2 3736   0.017   3.098   2.102
 1165SOL     OW 3737   0.096   3.610   2.817
 1165SOL    HW1 3738   0.081   3.540   2.754
 1165SOL    HW2 3739   0.175   3.654   2.786
 1166SOL     OW 3740   0.490   3.440   2.765
 1166SOL    HW1 3741   0.559   3.502   2.789
 1166SOL    HW2 3742   0.534   3.376   2.708
 1167SOL     OW 3743   0.970   2.647   3.084
 1167SOL    HW1 3744   1.031   2.630   3.156
 1167SOL    HW2 3745   0.887   2.609   3.112
 1168SOL     OW 3746   0.051   2.473   2.965
 1168SOL    HW1 3747   0.130   2.432   2.930
 1168SOL    HW2 3748   0.051   2.450   3.058
 1169SOL     OW 3749   0.212   2.371   3.579
 1169SOL    HW1 3750   0.287   2.330   3.535
 1169SOL    HW2 3751   0.199   2.454   3.533
 1170SOL     OW 3752   1.382   2.793   3.518
 1170SOL    HW1 3753   1.403   2.886   3.514
 1170SOL    HW2 3754   1.378   2.766   3.427
 1171SOL     OW 3755   0.816   2.432   2.226
 1171SOL    HW1 3756   0.825   2.357   2.168
 1171SOL    HW2 3757   0.739   2.479   2.192
 1172SOL     OW 3758   1.639   2.462   3.039
 1172SOL    HW1 3759   1.629   2.405   3.115
 1172SOL    HW2 3760   1.727   2.445   3.007
 1173SOL     OW 3761   0.280   3.422   3.595
 1173SOL    HW1 3762   0.228   3.482   3.648
 1173SOL    HW2 3763   0.263   3.336   3.633
 1174SOL     OW 3764   0.716   2.308   3.114
 1174SOL    HW1 3765   0.660   2.234   3.088
 1174SOL    HW2 3766   0.707   2.371   3.043
 1175SOL     OW 3767   0.921   3.540   3.334
 1175SOL    HW1 3768   0.896   3.500   3.251
 1175SOL    HW2 3769   0.916   3.634   3.318
 1176SOL     OW 3770   0.445   2.340   2.040
 1176SOL    HW1 3771   0.492   2.420   2.062
 1176SOL    HW2 3772   0.366   2.343   2.095
 1177SOL     OW 3773   0.162   2.989   3.327
 1177SOL    HW1 3774   0.152   2.927   3.399
 1177SOL    HW2 3775   0.175   2.934   3.250
 1178SOL     OW 3776   1.319   2.904   3.080
 1178SOL    HW1 3777   1.339   2.841   3.011
 1178SOL    HW2 3778   1.253   2.962   3.041
 1179SOL     OW 3779   1.318   2.718   2.164
 1179SOL    HW1 3780   1.244   2.687   2.216
 1179SOL    HW2 3781   1.290   2.705   2.073
 1180SOL     OW 3782   1.773   3.597   3.015
 1180SOL    HW1 3783   1.836   3.622   2.949
 1180SOL    HW2 3784   1.750   3.507   2.994
 1181SOL     OW 3785   1.238   3.593   2.962
 1181SOL    HW1 3786   1.322   3.619   2.924
 1181SOL    HW2 3787   1.250   3.501   2.985
 1182SOL     OW 3788   0.066   3.100   2.862
 1182SOL    HW1 3789   0.082   3.121   2.954
 1182SOL    HW2 3790   6.971   3.092   2.856
 1183SOL     OW 3791   0.681   3.535   3.603
 1183SOL    HW1 3792   0.619   3.608   3.595
 1183SOL    HW2 3793   0.749   3.554   3.539
 1184SOL     OW 3794   1.725   2.021   2.366
 1184SOL    HW1 3795   1.794   2.004   2.302
 1184SOL    HW2 3796   1.708   1.935   2.405
 1185SOL     OW 3797   1.393   3.430   2.354
 1185SOL    HW1 3798   1.451   3.464   2.286
 1185SOL    HW2 3799   1.342   3.505   2.383
 1186SOL     OW 3800   0.140   3.649   3.716
 1186SOL    HW1 3801   0.099   3.580   3.769
 1186SOL    HW2 3802   0.188   3.702   3.780
 1187SOL     OW 3803   1.278   2.791   2.532
 1187SOL    HW1 3804   1.352   2.731   2.543
 1187SOL    HW2 3805   1.312   2.862   2.478
 1188SOL     OW 3806   0.802   3.140   3.284
 1188SOL    HW1 3807   0.776   3.182   3.366
 1188SOL    HW2 3808   0.731   3.159   3.223
 1189SOL     OW 3809   0.673   3.492   2.018
 1189SOL    HW1 3810   0.685   3.507   1.924
 1189SOL    HW2 3811   0.619   3.413   2.023
 1190SOL     OW 3812   1.616   3.591   3.253
 1190SOL    HW1 3813   1.670   3.596   3.174
 1190SOL    HW2 3814   1.603   3.682   3.279
 1191SOL     OW 3815   1.843   2.031   2.827
 1191SOL    HW1 3816   1.872   1.943   2.803
 1191SOL    HW2 3817   1.757   2.040   2.788
 1192SOL     OW 3818   0.265   2.178   2.576
 1192SOL    HW1 3819   0.198   2.245   2.561
 1192SOL    HW2 3820   0.261   2.161   2.670
 1193SOL     OW 3821   1.209   3.462   1.896
 1193SOL    HW1 3822   1.197   3.370   1.922
 1193SOL    HW2 3823   1.142   3.476   1.828
 1194SOL     OW 3824   0.824   2.870   3.238
 1194SOL    HW1 3825   0.865   2.864   3.152
 1194SOL    HW2 3826   0.819   2.964   3.255
 1195SOL     OW 3827   0.915   2.772   2.154
 1195SOL    HW1 3828   0.975   2.805   2.087
 1195SOL    HW2 3829   0.966   2.704   2.200
 1196SOL     OW 3830   1.488   3.492   1.908
 1196SOL    HW1 3831   1.395   3.481   1.893
 1196SOL    HW2 3832   1.527   3.498   1.821
 1197SOL     OW 3833   0.373   3.170   3.353
 1197SOL    HW1 3834   0.358   3.247   3.298
 1197SOL    HW2 3835   0.306   3.108   3.327
 1198SOL     OW 3836   1.607   3.148   3.140
 1198SOL    HW1 3837   1.666   3.131   3.214
 1198SOL    HW2 3838   1.547   3.215   3.173
 1199SOL     OW 3839   1.064   2.974   2.574
 1199SOL    HW1 3840   0.991   2.924   2.611
 1199SOL    HW2 3841   1.128   2.907   2.549
 1200SOL     OW 3842   1.026   2.105   2.828
 1200SOL    HW1 3843   1.023   2.059   2.744
 1200SOL    HW2 3844   1.020   2.036   2.894
 1201SOL     OW 3845   0.609   3.351   2.344
 1201SOL    HW1 3846   0.658   3.302   2.278
 1201SOL    HW2 3847   0.529   3.378   2.300
 1202SOL     OW 3848   1.729   2.253   3.242
 1202SOL    HW1 3849   1.801   2.316   3.242
 1202SOL    HW2 3850   1.758   2.183   3.184
 1203SOL     OW 3851   0.262   3.212   2.133
 1203SOL    HW1 3852   0.167   3.218   2.123
 1203SOL    HW2 3853   0.279   3.247   2.220
 1204SOL     OW 3854   0.122   2.833   3.562
 1204SOL    HW1 3855   0.074   2.883   3.628
 1204SOL    HW2 3856   0.208   2.819   3.601
 1205SOL     OW 3857   0.677   2.057   3.361
 1205SOL    HW1 3858   0.761   2.035   3.322
 1205SOL    HW2 3859   0.699   2.089   3.448
 1206SOL     OW 3860   0.106   2.172   1.898
 1206SOL    HW1 3861   0.011   2.160   1.902
 1206SOL    HW2 3862   0.118   2.258   1.858
 1207SOL     OW 3863   1.424   2.718   3.258
 1207SOL    HW1 3864   1.374   2.779   3.204
 1207SOL    HW2 3865   1.512   2.722   3.222
 1208SOL     OW 3866   0.067   2.053   2.201
 1208SOL    HW1 3867   0.012   2.029   2.127
 1208SOL    HW2 3868   0.147   2.002   2.189
 1209SOL     OW 3869   1.178   3.195   1.980
 1209SOL    HW1 3870   1.086   3.167   1.981
 1209SOL    HW2 3871   1.203   3.196   2.072
 1210SOL     OW 3872   0.623   2.693   3.298
 1210SOL    HW1 3873   0.678   2.770   3.283
 1210SOL    HW2 3874   0.684   2.620   3.304
 1211SOL     OW 3875   1.485   3.647   2.845
 1211SOL    HW1 3876   1.507   3.716   2.783
 1211SOL    HW2 3877   1.568   3.624   2.887
 1212SOL     OW 3878   0.713   2.421   3.561
 1212SOL    HW1 3879   0.761   2.479   3.621
 1212SOL    HW2 3880   0.732   2.333   3.594
 1213SOL     OW 3881   1.474   3.054   3.489
 1213SOL    HW1 3882   1.462   3.071   3.583
 1213SOL    HW2 3883   1.566   3.075   3.472
 1214SOL     OW 3884   0.368   3.614   3.424
 1214SOL    HW1 3885   0.281   3.652   3.409
 1214SOL    HW2 3886   0.350   3.533   3.471
 1215SOL     OW 3887   1.663   2.741   3.116
 1215SOL    HW1 3888   1.659   2.656   3.072
 1215SOL    HW2 3889   1.653   2.805   3.046
 1216SOL     OW 3890   1.216   2.182   2.319
 1216SOL    HW1 3891   1.277   2.108   2.313
 1216SOL    HW2 3892   1.245   2.232   2.395
 1217SOL     OW 3893   0.587   2.596   2.539
 1217SOL    HW1 3894   0.627   2.682   2.526
 1217SOL    HW2 3895   0.524   2.587   2.468
 1218SOL     OW 3896   1.755   2.225   3.515
 1218SOL    HW1 3897   1.741   2.241   3.422
 1218SOL    HW2 3898   1.681   2.169   3.540
 1219SOL     OW 3899   1.750   2.795   3.372
 1219SOL    HW1 3900   1.738   2.889   3.385
 1219SOL    HW2 3901   1.730   2.781   3.279
 1220SOL     OW 3902   0.867   3.226   1.908
 1220SOL    HW1 3903   0.827   3.254   1.991
 1220SOL    HW2 3904   0.880   3.307   1.860
 1221SOL     OW 3905   0.665   3.645   2.798
 1221SOL    HW1 3906   0.647   3.737   2.779
 1221SOL    HW2 3907   0.760   3.637   2.793
 1222SOL     OW 3908   0.870   2.834   2.715
 1222SOL    HW1 3909   0.920   2.761   2.752
 1222SOL    HW2 3910   0.829   2.877   2.791
 1223SOL     OW 3911   1.074   2.847   1.950
 1223SOL    HW1 3912   1.055   2.901   1.873
 1223SOL    HW2 3913   1.149   2.794   1.924
 1224SOL     OW 3914   1.843   3.415   2.704
 1224SOL    HW1 3915   1.765   3.405   2.650
 1224SOL    HW2 3916   1.827   3.360   2.780
 1225SOL     OW 3917   0.237   3.169   3.726
 1225SOL    HW1 3918   0.148   3.133   3.719
 1225SOL    HW2 3919   0.251   3.179   3.820
 1226SOL     OW 3920   0.152   3.145   2.562
 1226SOL    HW1 3921   0.117   3.101   2.640
 1226SOL    HW2 3922   0.182   3.074   2.506
 1227SOL     OW 3923   0.689   3.272   3.495
 1227SOL    HW1 3924   0.609   3.229   3.526
 1227SOL    HW2 3925   0.685   3.360   3.531
 1228SOL     OW 3926   1.812   2.042   3.098
 1228SOL    HW1 3927   1.815   1.947   3.110
 1228SOL    HW2 3928   1.824   2.055   3.003
 1229SOL     OW 3929   0.463   2.293   2.405
 1229SOL    HW1 3930   0.476   2.227   2.337
 1229SOL    HW2 3931   0.406   2.250   2.469
 1230SOL     OW 3932   1.701   3.342   2.946
 1230SOL    HW1 3933   1.619   3.325   2.899
 1230SOL    HW2 3934   1.703   3.276   3.015
 1231SOL     OW 3935   0.333   2.418   3.159
 1231SOL    HW1 3936   0.385   2.360   3.215
 1231SOL    HW2 3937   0.350   2.386   3.070
 1232SOL     OW 3938   0.833   3.441   2.536
 1232SOL    HW1 3939   0.810   3.508   2.471
 1232SOL    HW2 3940   0.758   3.382   2.537
 1233SOL     OW 3941   1.428   2.092   2.979
 1233SOL    HW1 3942   1.444   2.007   3.020
 1233SOL    HW2 3943   1.378   2.141   3.044
 1234SOL     OW 3944   1.009   1.878   2.996
 1234SOL    HW1 3945   0.954   1.813   2.952
 1234SOL    HW2 3946   1.096   1.839   2.998
 1235SOL     OW 3947   0.775   3.195   2.185
 1235SOL    HW1 3948   0.750   3.103   2.194
 1235SOL    HW2 3949   0.857   3.203   2.235
 1236SOL     OW 3950   0.622   3.418   3.150
 1236SOL    HW1 3951   0.621   3.501   3.199
 1236SOL    HW2 3952   0.710   3.413   3.113
 1237SOL     OW 3953   1.359   1.912   2.036
 1237SOL    HW1 3954   1.393   1.843   1.981
 1237SOL    HW2 3955   1.269   1.886   2.056
 1238SOL     OW 3956   1.297   2.326   2.539
 1238SOL    HW1 3957   1.244   2.406   2.542
 1238SOL    HW2 3958   1.291   2.291   2.628
 1239SOL     OW 3959   1.584   2.056   2.747
 1239SOL    HW1 3960   1.529   2.081   2.821
 1239SOL    HW2 3961   1.584   2.132   2.689
 1240SOL     OW 3962   0.067   2.929   2.141
 1240SOL    HW1 3963   0.156   2.896   2.144
 1240SOL    HW2 3964   0.012   2.853   2.160
 1241SOL     OW 3965   0.891   3.525   2.199
 1241SOL    HW1 3966   0.816   3.510   2.141
 1241SOL    HW2 3967   0.863   3.596   2.256
 1242SOL     OW 3968   0.171   2.514   3.841
 1242SOL    HW1 3969   0.173   2.454   3.916
 1242SOL    HW2 3970   0.218   2.468   3.772
 1243SOL     OW 3971   0.228   2.135   4.712
 1243SOL    HW1 3972   0.276   2.099   4.786
 1243SOL    HW2 3973   0.136   2.118   4.733
 1244SOL     OW 3974   6.985   2.246   4.375
 1244SOL    HW1 3975   6.939   2.243   4.459
 1244SOL    HW2 3976   0.014   2.156   4.360
 1245SOL     OW 3977   0.570   3.161   4.912
 1245SOL    HW1 3978   0.485   3.167   4.868
 1245SOL    HW2 3979   0.587   3.250   4.943
 1246SOL     OW 3980   1.574   3.377   4.433
 1246SOL    HW1 3981   1.530   3.353   4.514
 1246SOL    HW2 3982   1.504   3.381   4.368
 1247SOL     OW 3983   1.133   2.561   4.418
 1247SOL    HW1 3984   1.181   2.643   4.405
 1247SOL    HW2 3985   1.086   2.573   4.500
 1248SOL     OW 3986   1.783   2.458   3.948
 1248SOL    HW1 3987   1.754   2.454   3.857
 1248SOL    HW2 3988   1.740   2.383   3.990
 1249SOL     OW 3989   0.742   2.998   4.772
 1249SOL    HW1 3990   0.677   3.036   4.831
 1249SOL    HW2 3991   0.783   3.073   4.729
 1250SOL     OW 3992   0.876   2.621   5.548
 1250SOL    HW1 3993   0.869   2.691   5.613
 1250SOL    HW2 3994   0.898   2.666   5.467
 1251SOL     OW 3995   0.684   2.858   4.369
 1251SOL    HW1 3996   0.751   2.853   4.437
 1251SOL    HW2 3997   0.616   2.914   4.408
 1252SOL     OW 3998   0.715   3.010   5.546
 1252SOL    HW1 3999   0.764   3.087   5.577
 1252SOL    HW2 4000   0.637   3.047   5.504
 1253SOL     OW 4001   0.338   3.278   4.789
 1253SOL    HW1 4002   0.264   3.242   4.741
 1253SOL    HW2 4003   0.383   3.335   4.727
 1254SOL     OW 4004   1.459   3.365   5.087
 1254SOL    HW1 4005   1.513   3.443   5.097
 1254SOL    HW2 4006   1.389   3.375   5.152
 1255SOL     OW 4007   0.442   2.253   5.216
 1255SOL    HW1 4008   0.520   2.198   5.220
 1255SOL    HW2 4009   0.369   2.192   5.225
 1256SOL     OW 4010   1.603   2.302   4.470
 1256SOL    HW1 4011   1.531   2.320   4.409
 1256SOL    HW2 4012   1.603   2.377   4.530
 1257SOL     OW 4013   0.223   3.570   4.191
 1257SOL    HW1 4014   0.241   3.648   4.244
 1257SOL    HW2 4015   0.291   3.572   4.123
 1258SOL     OW 4016   1.138   3.205   5.418
 1258SOL    HW1 4017   1.179   3.197   5.505
 1258SOL    HW2 4018   1.086   3.125   5.410
 1259SOL     OW 4019   0.286   3.304   4.242
 1259SOL    HW1 4020   0.258   3.396   4.249
 1259SOL    HW2 4021   0.241   3.260   4.314
 1260SOL     OW 4022   0.272   2.945   4.626
 1260SOL    HW1 4023   0.268   2.854   4.655
 1260SOL    HW2 4024   0.200   2.988   4.672
 1261SOL     OW 4025   0.602   3.655   5.151
 1261SOL    HW1 4026   0.519   3.638   5.195
 1261SOL    HW2 4027   0.627   3.744   5.178
 1262SOL     OW 4028   0.576   2.848   3.865
 1262SOL    HW1 4029   0.627   2.893   3.797
 1262SOL    HW2 4030   0.615   2.879   3.947
 1263SOL     OW 4031   1.595   1.990   5.187
 1263SOL    HW1 4032   1.622   2.070   5.142
 1263SOL    HW2 4033   1.573   2.020   5.276
 1264SOL     OW 4034   0.135   2.473   4.298
 1264SOL    HW1 4035   0.067   2.410   4.321
 1264SOL    HW2 4036   0.120   2.547   4.357
 1265SOL     OW 4037   1.843   3.612   4.054
 1265SOL    HW1 4038   1.914   3.589   4.114
 1265SOL    HW2 4039   1.858   3.705   4.034
 1266SOL     OW 4040   0.036   3.455   3.872
 1266SOL    HW1 4041   0.027   3.361   3.886
 1266SOL    HW2 4042   6.953   3.492   3.904
 1267SOL     OW 4043   1.690   2.781   4.370
 1267SOL    HW1 4044   1.771   2.737   4.346
 1267SOL    HW2 4045   1.667   2.833   4.293
 1268SOL     OW 4046   1.651   2.964   4.154
 1268SOL    HW1 4047   1.737   2.964   4.113
 1268SOL    HW2 4048   1.658   3.028   4.225
 1269SOL     OW 4049   0.151   2.593   5.298
 1269SOL    HW1 4050   0.245   2.604   5.286
 1269SOL    HW2 4051   0.120   2.678   5.330
 1270SOL     OW 4052   0.616   3.253   4.461
 1270SOL    HW1 4053   0.571   3.170   4.469
 1270SOL    HW2 4054   0.600   3.280   4.370
 1271SOL     OW 4055   1.284   3.097   5.144
 1271SOL    HW1 4056   1.314   3.028   5.084
 1271SOL    HW2 4057   1.344   3.091   5.218
 1272SOL     OW 4058   0.821   1.868   4.238
 1272SOL    HW1 4059   0.861   1.951   4.214
 1272SOL    HW2 4060   0.728   1.886   4.243
 1273SOL     OW 4061   0.203   2.822   4.985
 1273SOL    HW1 4062   0.284   2.773   4.968
 1273SOL    HW2 4063   0.141   2.789   4.920
 1274SOL     OW 4064   1.531   2.863   3.924
 1274SOL    HW1 4065   1.462   2.806   3.957
 1274SOL    HW2 4066   1.574   2.896   4.003
 1275SOL     OW 4067   1.183   3.677   5.351
 1275SOL    HW1 4068   1.188   3.739   5.278
 1275SOL    HW2 4069   1.201   3.592   5.312
 1276SOL     OW 4070   0.361   2.113   5.563
 1276SOL    HW1 4071   0.399   2.194   5.595
 1276SOL    HW2 4072   0.267   2.122   5.578
 1277SOL     OW 4073   1.468   3.281   4.669
 1277SOL    HW1 4074   1.402   3.298   4.736
 1277SOL    HW2 4075   1.454   3.190   4.643
 1278SOL     OW 4076   1.651   3.620   4.300
 1278SOL    HW1 4077   1.634   3.585   4.212
 1278SOL    HW2 4078   1.635   3.547   4.359
 1279SOL     OW 4079   0.587   2.572   3.988
 1279SOL    HW1 4080   0.597   2.659   3.948
 1279SOL    HW2 4081   0.528   2.586   4.062
 1280SOL     OW 4082   1.279   2.231   4.659
 1280SOL    HW1 4083   1.190   2.196   4.667
 1280SOL    HW2 4084   1.332   2.176   4.717
 1281SOL     OW 4085   1.578   3.536   4.035
 1281SOL    HW1 4086   1.670   3.559   4.026
 1281SOL    HW2 4087   1.549   3.519   3.945
 1282SOL     OW 4088   0.791   2.480   5.171
 1282SOL    HW1 4089   0.765   2.453   5.259
 1282SOL    HW2 4090   0.758   2.410   5.114
 1283SOL     OW 4091   1.392   2.336   5.402
 1283SOL    HW1 4092   1.396   2.381   5.486
 1283SOL    HW2 4093   1.449   2.260   5.412
 1284SOL     OW 4094   0.948   2.746   5.311
 1284SOL    HW1 4095   1.004   2.679   5.271
 1284SOL    HW2 4096   0.900   2.784   5.237
 1285SOL     OW 4097   0.995   2.271   4.955
 1285SOL    HW1 4098   0.905   2.287   4.984
 1285SOL    HW2 4099   0.986   2.229   4.870
 1286SOL     OW 4100   1.054   2.560   4.147
 1286SOL    HW1 4101   1.073   2.554   4.241
 1286SOL    HW2 4102   0.970   2.515   4.137
 1287SOL     OW 4103   0.097   2.676   4.501
 1287SOL    HW1 4104   0.187   2.673   4.533
 1287SOL    HW2 4105   0.045   2.699   4.578
 1288SOL     OW 4106   0.109   3.730   5.317
 1288SOL    HW1 4107   0.125   3.707   5.409
 1288SOL    HW2 4108   0.017   3.707   5.302
 1289SOL     OW 4109   0.899   2.213   3.921
 1289SOL    HW1 4110   0.940   2.276   3.861
 1289SOL    HW2 4111   0.903   2.129   3.874
 1290SOL     OW 4112   1.701   2.431   5.555
 1290SOL    HW1 4113   1.668   2.505   5.505
 1290SOL    HW2 4114   1.730   2.368   5.488
 1291SOL     OW 4115   1.382   3.004   4.263
 1291SOL    HW1 4116   1.461   2.994   4.210
 1291SOL    HW2 4117   1.328   3.066   4.214
 1292SOL     OW 4118   0.555   2.039   4.622
 1292SOL    HW1 4119   0.561   2.068   4.713
 1292SOL    HW2 4120   0.557   2.120   4.570
 1293SOL     OW 4121   0.998   3.306   4.191
 1293SOL    HW1 4122   0.969   3.382   4.141
 1293SOL    HW2 4123   0.973   3.327   4.281
 1294SOL     OW 4124   0.353   3.682   4.591
 1294SOL    HW1 4125   0.394   3.596   4.602
 1294SOL    HW2 4126   0.423   3.745   4.613
 1295SOL     OW 4127   1.802   2.912   4.598
 1295SOL    HW1 4128   1.750   2.892   4.520
 1295SOL    HW2 4129   1.737   2.919   4.668
 1296SOL     OW 4130   1.226   3.403   5.237
 1296SOL    HW1 4131   1.215   3.331   5.299
 1296SOL    HW2 4132   1.157   3.390   5.172
 1297SOL     OW 4133   0.313   2.808   3.977
 1297SOL    HW1 4134   0.395   2.829   3.933
 1297SOL    HW2 4135   0.287   2.724   3.940
 1298SOL     OW 4136   1.482   2.613   4.444
 1298SOL    HW1 4137   1.480   2.574   4.531
 1298SOL    HW2 4138   1.560   2.668   4.444
 1299SOL     OW 4139   0.474   3.129   5.460
 1299SOL    HW1 4140   0.448   3.136   5.368
 1299SOL    HW2 4141   0.392   3.127   5.508
 1300SOL     OW 4142   1.126   3.640   3.953
 1300SOL    HW1 4143   1.049   3.602   3.995
 1300SOL    HW2 4144   1.150   3.576   3.885
 1301SOL     OW 4145   0.195   2.119   5.212
 1301SOL    HW1 4146   0.114   2.170   5.206
 1301SOL    HW2 4147   0.169   2.038   5.256
 1302SOL     OW 4148   1.629   3.244   3.818
 1302SOL    HW1 4149   1.589   3.329   3.801
 1302SOL    HW2 4150   1.561   3.180   3.795
 1303SOL     OW 4151   0.465   3.598   4.040
 1303SOL    HW1 4152   0.510   3.651   4.106
 1303SOL    HW2 4153   0.535   3.563   3.985
 1304SOL     OW 4154   1.400   1.969   4.167
 1304SOL    HW1 4155   1.392   1.943   4.075
 1304SOL    HW2 4156   1.494   1.974   4.183
 1305SOL     OW 4157   0.256   3.655   4.947
 1305SOL    HW1 4158   0.303   3.580   4.984
 1305SOL    HW2 4159   0.212   3.620   4.870
 1306SOL     OW 4160   0.940   3.563   4.619
 1306SOL    HW1 4161   1.019   3.514   4.641
 1306SOL    HW2 4162   0.900   3.512   4.548
 1307SOL     OW 4163   0.402   2.549   4.197
 1307SOL    HW1 4164   0.426   2.458   4.217
 1307SOL    HW2 4165   0.309   2.554   4.217
 1308SOL     OW 4166   1.525   2.086   5.447
 1308SOL    HW1 4167   1.537   2.106   5.540
 1308SOL    HW2 4168   1.457   2.019   5.445
 1309SOL     OW 4169   0.650   1.977   3.826
 1309SOL    HW1 4170   0.706   1.901   3.845
 1309SOL    HW2 4171   0.594   1.947   3.754
 1310SOL     OW 4172   0.762   2.141   5.480
 1310SOL    HW1 4173   0.844   2.091   5.476
 1310SOL    HW2 4174   0.716   2.106   5.556
 1311SOL     OW 4175   0.876   3.386   4.918
 1311SOL    HW1 4176   0.858   3.347   4.833
 1311SOL    HW2 4177   0.945   3.331   4.956
 1312SOL     OW 4178   1.337   2.452   5.157
 1312SOL    HW1 4179   1.369   2.421   5.242
 1312SOL    HW2 4180   1.375   2.539   5.148
 1313SOL     OW 4181   0.819   3.249   4.672
 1313SOL    HW1 4182   0.904   3.239   4.629
 1313SOL    HW2 4183   0.757   3.258   4.600
 1314SOL     OW 4184   0.930   2.371   4.623
 1314SOL    HW1 4185   0.905   2.362   4.531
 1314SOL    HW2 4186   0.960   2.284   4.648
 1315SOL     OW 4187   0.553   1.924   4.221
 1315SOL    HW1 4188   0.472   1.923   4.272
 1315SOL    HW2 4189   0.544   2.000   4.163
 1316SOL     OW 4190   1.428   3.064   3.762
 1316SOL    HW1 4191   1.457   2.989   3.814
 1316SOL    HW2 4192   1.343   3.087   3.799
 1317SOL     OW 4193   0.285   1.909   3.919
 1317SOL    HW1 4194   0.339   1.979   3.881
 1317SOL    HW2 4195   0.349   1.847   3.953
 1318SOL     OW 4196   0.943   2.113   4.179
 1318SOL    HW1 4197   0.919   2.150   4.094
 1318SOL    HW2 4198   1.038   2.127   4.186
 1319SOL     OW 4199   1.080   2.548   5.179
 1319SOL    HW1 4200   1.016   2.477   5.184
 1319SOL    HW2 4201   1.165   2.503   5.174
 1320SOL     OW 4202   1.217   3.436   4.519
 1320SOL    HW1 4203   1.231   3.500   4.450
 1320SOL    HW2 4204   1.288   3.453   4.582
 1321SOL     OW 4205   0.472   3.015   4.454
 1321SOL    HW1 4206   0.408   2.994   4.522
 1321SOL    HW2 4207   0.425   3.001   4.371
 1322SOL     OW 4208   1.262   3.654   4.338
 1322SOL    HW1 4209   1.311   3.716   4.283
 1322SOL    HW2 4210   1.193   3.706   4.378
 1323SOL     OW 4211   1.024   2.394   3.751
 1323SOL    HW1 4212   0.981   2.477   3.731
 1323SOL    HW2 4213   1.089   2.416   3.818
 1324SOL     OW 4214   0.070   2.415   5.097
 1324SOL    HW1 4215   0.163   2.408   5.074
 1324SOL    HW2 4216   0.067   2.481   5.166
 1325SOL     OW 4217   0.567   2.089   4.894
 1325SOL    HW1 4218   0.610   2.016   4.940
 1325SOL    HW2 4219   0.476   2.084   4.923
 1326SOL     OW 4220   0.865   2.318   4.362
 1326SOL    HW1 4221   0.821   2.375   4.299
 1326SOL    HW2 4222   0.889   2.240   4.312
 1327SOL     OW 4223   1.019   1.917   4.470
 1327SOL    HW1 4224   0.959   1.912   4.395
 1327SOL    HW2 4225   0.995   1.843   4.525
 1328SOL     OW 4226   1.440   3.021   4.581
 1328SOL    HW1 4227   1.368   2.958   4.582
 1328SOL    HW2 4228   1.463   3.029   4.488
 1329SOL     OW 4229   1.466   2.473   4.688
 1329SOL    HW1 4230   1.407   2.397   4.693
 1329SOL    HW2 4231   1.522   2.464   4.765
 1330SOL     OW 4232   1.839   2.671   4.109
 1330SOL    HW1 4233   1.898   2.622   4.168
 1330SOL    HW2 4234   1.816   2.608   4.041
 1331SOL     OW 4235   0.500   3.286   3.871
 1331SOL    HW1 4236   0.421   3.260   3.919
 1331SOL    HW2 4237   0.491   3.245   3.785
 1332SOL     OW 4238   1.679   3.127   4.365
 1332SOL    HW1 4239   1.774   3.126   4.380
 1332SOL    HW2 4240   1.652   3.216   4.387
 1333SOL     OW 4241   1.393   2.435   3.795
 1333SOL    HW1 4242   1.331   2.413   3.865
 1333SOL    HW2 4243   1.478   2.406   3.827
 1334SOL     OW 4244   0.529   2.120   4.033
 1334SOL    HW1 4245   0.580   2.073   3.966
 1334SOL    HW2 4246   0.501   2.200   3.990
 1335SOL     OW 4247   1.747   3.105   5.281
 1335SOL    HW1 4248   1.834   3.067   5.274
 1335SOL    HW2 4249   1.762   3.194   5.312
 1336SOL     OW 4250   1.053   3.215   5.055
 1336SOL    HW1 4251   0.977   3.183   5.104
 1336SOL    HW2 4252   1.128   3.173   5.097
 1337SOL     OW 4253   1.609   3.491   5.384
 1337SOL    HW1 4254   1.601   3.525   5.295
 1337SOL    HW2 4255   1.690   3.440   5.382
 1338SOL     OW 4256   1.137   3.075   4.825
 1338SOL    HW1 4257   1.076   3.112   4.889
 1338SOL    HW2 4258   1.108   3.110   4.741
 1339SOL     OW 4259   1.622   2.957   4.799
 1339SOL    HW1 4260   1.615   3.020   4.871
 1339SOL    HW2 4261   1.547   2.977   4.743
 1340SOL     OW 4262   0.918   1.954   5.114
 1340SOL    HW1 4263   0.941   1.936   5.023
 1340SOL    HW2 4264   0.997   1.993   5.151
 1341SOL     OW 4265   0.985   2.977   5.446
 1341SOL    HW1 4266   0.894   2.994   5.472
 1341SOL    HW2 4267   0.981   2.898   5.393
 1342SOL     OW 4268   0.709   2.924   4.097
 1342SOL    HW1 4269   0.695   2.904   4.189
 1342SOL    HW2 4270   0.784   2.871   4.071
 1343SOL     OW 4271   0.430   2.670   4.970
 1343SOL    HW1 4272   0.495   2.683   5.039
 1343SOL    HW2 4273   0.392   2.584   4.988
 1344SOL     OW 4274   1.263   2.236   5.006
 1344SOL    HW1 4275   1.295   2.314   5.051
 1344SOL    HW2 4276   1.172   2.256   4.984
 1345SOL     OW 4277   0.067   3.427   5.051
 1345SOL    HW1 4278   0.024   3.508   5.075
 1345SOL    HW2 4279   0.160   3.443   5.067
 1346SOL     OW 4280   0.335   2.977   4.216
 1346SOL    HW1 4281   0.346   3.050   4.155
 1346SOL    HW2 4282   0.333   2.899   4.161
 1347SOL     OW 4283   0.545   2.390   4.584
 1347SOL    HW1 4284   0.559   2.449   4.510
 1347SOL    HW2 4285   0.612   2.416   4.648
 1348SOL     OW 4286   1.246   3.212   4.115
 1348SOL    HW1 4287   1.302   3.283   4.147
 1348SOL    HW2 4288   1.159   3.234   4.148
 1349SOL     OW 4289   1.292   3.324   4.873
 1349SOL    HW1 4290   1.347   3.330   4.951
 1349SOL    HW2 4291   1.237   3.247   4.888
 1350SOL     OW 4292   1.576   2.481   4.209
 1350SOL    HW1 4293   1.527   2.526   4.277
 1350SOL    HW2 4294   1.620   2.552   4.160
 1351SOL     OW 4295   0.348   3.397   5.032
 1351SOL    HW1 4296   0.334   3.349   4.950
 1351SOL    HW2 4297   0.443   3.407   5.039
 1352SOL     OW 4298   0.429   2.595   5.327
 1352SOL    HW1 4299   0.488   2.643   5.269
 1352SOL    HW2 4300   0.476   2.514   5.347
 1353SOL     OW 4301   1.611   2.643   5.412
 1353SOL    HW1 4302   1.525   2.685   5.406
 1353SOL    HW2 4303   1.663   2.685   5.343
 1354SOL     OW 4304   0.996   1.998   5.477
 1354SOL    HW1 4305   1.054   2.070   5.457
 1354SOL    HW2 4306   1.045   1.919   5.453
 1355SOL     OW 4307   0.501   1.895   5.475
 1355SOL    HW1 4308   0.451   1.848   5.408
 1355SOL    HW2 4309   0.448   1.973   5.493
 1356SOL     OW 4310   0.591   2.736   4.755
 1356SOL    HW1 4311   0.622   2.826   4.758
 1356SOL    HW2 4312   0.534   2.727   4.831
 1357SOL     OW 4313   1.343   2.720   4.742
 1357SOL    HW1 4314   1.256   2.703   4.706
 1357SOL    HW2 4315   1.391   2.638   4.731
 1358SOL     OW 4316   1.198   2.388   3.985
 1358SOL    HW1 4317   1.207   2.310   4.040
 1358SOL    HW2 4318   1.156   2.453   4.041
 1359SOL     OW 4319   0.310   2.056   4.968
 1359SOL    HW1 4320   0.269   2.085   5.050
 1359SOL    HW2 4321   0.291   1.962   4.964
 1360SOL     OW 4322   0.090   3.169   4.982
 1360SOL    HW1 4323   0.102   3.111   5.058
 1360SOL    HW2 4324   0.085   3.257   5.020
 1361SOL     OW 4325   0.719   2.489   4.774
 1361SOL    HW1 4326   0.797   2.477   4.719
 1361SOL    HW2 4327   0.691   2.579   4.758
 1362SOL     OW 4328   1.741   2.822   5.584
 1362SOL    HW1 4329   1.698   2.753   5.533
 1362SOL    HW2 4330   1.680   2.840   5.655
 1363SOL     OW 4331   0.305   1.923   4.344
 1363SOL    HW1 4332   0.284   2.014   4.366
 1363SOL    HW2 4333   0.314   1.880   4.429
 1364SOL     OW 4334   1.625   2.243   4.081
 1364SOL    HW1 4335   1.652   2.177   4.145
 1364SOL    HW2 4336   1.599   2.319   4.135
 1365SOL     OW 4337   1.030   2.620   4.681
 1365SOL    HW1 4338   1.019   2.637   4.775
 1365SOL    HW2 4339   1.003   2.529   4.670
 1366SOL     OW 4340   0.982   3.428   5.447
 1366SOL    HW1 4341   0.965   3.472   5.363
 1366SOL    HW2 4342   1.025   3.346   5.423
 1367SOL     OW 4343   1.849   3.362   5.328
 1367SOL    HW1 4344   1.872   3.390   5.239
 1367SOL    HW2 4345   1.929   3.375   5.379
 1368SOL     OW 4346   0.366   2.780   5.526
 1368SOL    HW1 4347   0.443   2.802   5.578
 1368SOL    HW2 4348   0.397   2.714   5.464
 1369SOL     OW 4349   1.526   2.133   3.849
 1369SOL    HW1 4350   1.463   2.067   3.879
 1369SOL    HW2 4351   1.561   2.171   3.929
 1370SOL     OW 4352   1.285   2.686   3.751
 1370SOL    HW1 4353   1.328   2.600   3.756
 1370SOL    HW2 4354   1.318   2.724   3.670
 1371SOL     OW 4355   1.070   3.202   4.582
 1371SOL    HW1 4356   1.076   3.131   4.519
 1371SOL    HW2 4357   1.127   3.271   4.546
 1372SOL     OW 4358   0.320   2.666   4.665
 1372SOL    HW1 4359   0.414   2.685   4.665
 1372SOL    HW2 4360   0.314   2.578   4.703
 1373SOL     OW 4361   0.325   2.385   4.740
 1373SOL    HW1 4362   0.289   2.298   4.724
 1373SOL    HW2 4363   0.402   2.390   4.683
 1374SOL     OW 4364   1.134   2.234   5.411
 1374SOL    HW1 4365   1.087   2.288   5.474
 1374SOL    HW2 4366   1.221   2.274   5.406
 1375SOL     OW 4367   1.160   2.059   5.196
 1375SOL    HW1 4368   1.149   2.121   5.268
 1375SOL    HW2 4369   1.203   2.109   5.127
 1376SOL     OW 4370   6.994   3.187   3.945
 1376SOL    HW1 4371   6.924   3.208   4.006
 1376SOL    HW2 4372   0.018   3.096   3.966
 1377SOL     OW 4373   0.096   3.610   4.679
 1377SOL    HW1 4374   0.081   3.540   4.616
 1377SOL    HW2 4375   0.175   3.654   4.648
 1378SOL     OW 4376   0.490   3.440   4.627
 1378SOL    HW1 4377   0.559   3.502   4.651
 1378SOL    HW2 4378   0.534   3.376   4.570
 1379SOL     OW 4379   0.970   2.647   4.946
 1379SOL    HW1 4380   1.031   2.630   5.018
 1379SOL    HW2 4381   0.887   2.609   4.975
 1380SOL     OW 4382   0.051   2.473   4.826
 1380SOL    HW1 4383   0.130   2.432   4.792
 1380SOL    HW2 4384   0.051   2.450   4.919
 1381SOL     OW 4385   0.212   2.371   5.441
 1381SOL    HW1 4386   0.287   2.330   5.398
 1381SOL    HW2 4387   0.199   2.454   5.395
 1382SOL     OW 4388   1.382   2.793   5.380
 1382SOL    HW1 4389   1.403   2.887   5.376
 1382SOL    HW2 4390   1.378   2.766   5.289
 1383SOL     OW 4391   0.816   2.432   4.090
 1383SOL    HW1 4392   0.825   2.357   4.031
 1383SOL    HW2 4393   0.741   2.480   4.056
 1384SOL     OW 4394   1.640   2.462   4.901
 1384SOL    HW1 4395   1.630   2.405   4.977
 1384SOL    HW2 4396   1.728   2.445   4.868
 1385SOL     OW 4397   0.280   3.422   5.457
 1385SOL    HW1 4398   0.228   3.482   5.510
 1385SOL    HW2 4399   0.263   3.336   5.495
 1386SOL     OW 4400   0.716   2.308   4.976
 1386SOL    HW1 4401   0.660   2.234   4.950
 1386SOL    HW2 4402   0.706   2.371   4.904
 1387SOL     OW 4403   0.921   3.540   5.196
 1387SOL    HW1 4404   0.896   3.500   5.113
 1387SOL    HW2 4405   0.915   3.634   5.180
 1388SOL     OW 4406   0.447   2.344   3.902
 1388SOL    HW1 4407   0.499   2.422   3.920
 1388SOL    HW2 4408   0.369   2.353   3.957
 1389SOL     OW 4409   0.162   2.989   5.190
 1389SOL    HW1 4410   0.153   2.927   5.262
 1389SOL    HW2 4411   0.175   2.935   5.112
 1390SOL     OW 4412   1.319   2.904   4.942
 1390SOL    HW1 4413   1.339   2.841   4.873
 1390SOL    HW2 4414   1.254   2.962   4.902
 1391SOL     OW 4415   1.318   2.718   4.026
 1391SOL    HW1 4416   1.244   2.688   4.079
 1391SOL    HW2 4417   1.290   2.705   3.935
 1392SOL     OW 4418   1.781   3.596   4.883
 1392SOL    HW1 4419   1.840   3.623   4.813
 1392SOL    HW2 4420   1.753   3.508   4.859
 1393SOL     OW 4421   1.239   3.594   4.827
 1393SOL    HW1 4422   1.322   3.619   4.787
 1393SOL    HW2 4423   1.250   3.502   4.848
 1394SOL     OW 4424   0.066   3.100   4.724
 1394SOL    HW1 4425   0.083   3.121   4.816
 1394SOL    HW2 4426   6.971   3.092   4.718
 1395SOL     OW 4427   0.681   3.535   5.465
 1395SOL    HW1 4428   0.619   3.608   5.457
 1395SOL    HW2 4429   0.749   3.554   5.400
 1396SOL     OW 4430   1.723   2.021   4.227
 1396SOL    HW1 4431   1.793   2.004   4.164
 1396SOL    HW2 4432   1.706   1.935   4.267
 1397SOL     OW 4433   1.394   3.430   4.217
 1397SOL    HW1 4434   1.451   3.464   4.148
 1397SOL    HW2 4435   1.342   3.505   4.245
 1398SOL     OW 4436   0.141   3.649   5.578
 1398SOL    HW1 4437   0.099   3.580   5.631
 1398SOL    HW2 4438   0.188   3.702   5.642
 1399SOL     OW 4439   1.278   2.791   4.394
 1399SOL    HW1 4440   1.352   2.731   4.405
 1399SOL    HW2 4441   1.313   2.862   4.340
 1400SOL     OW 4442   0.802   3.140   5.146
 1400SOL    HW1 4443   0.776   3.182   5.228
 1400SOL    HW2 4444   0.730   3.159   5.085
 1401SOL     OW 4445   0.673   3.492   3.880
 1401SOL    HW1 4446   0.685   3.507   3.786
 1401SOL    HW2 4447   0.619   3.414   3.885
 1402SOL     OW 4448   1.618   3.590   5.116
 1402SOL    HW1 4449   1.672   3.594   5.038
 1402SOL    HW2 4450   1.604   3.682   5.140
 1403SOL     OW 4451   1.843   2.031   4.689
 1403SOL    HW1 4452   1.872   1.943   4.665
 1403SOL    HW2 4453   1.756   2.039   4.650
 1404SOL     OW 4454   0.264   2.177   4.438
 1404SOL    HW1 4455   0.198   2.245   4.424
 1404SOL    HW2 4456   0.261   2.160   4.533
 1405SOL     OW 4457   1.208   3.462   3.758
 1405SOL    HW1 4458   1.197   3.371   3.784
 1405SOL    HW2 4459   1.142   3.476   3.690
 1406SOL     OW 4460   0.824   2.870   5.100
 1406SOL    HW1 4461   0.865   2.864   5.014
 1406SOL    HW2 4462   0.819   2.964   5.117
 1407SOL     OW 4463   0.915   2.771   4.016
 1407SOL    HW1 4464   0.974   2.805   3.949
 1407SOL    HW2 4465   0.966   2.705   4.062
 1408SOL     OW 4466   1.489   3.491   3.770
 1408SOL    HW1 4467   1.395   3.481   3.754
 1408SOL    HW2 4468   1.527   3.497   3.682
 1409SOL     OW 4469   0.374   3.170   5.215
 1409SOL    HW1 4470   0.358   3.247   5.160
 1409SOL    HW2 4471   0.306   3.108   5.189
 1410SOL     OW 4472   1.607   3.147   5.003
 1410SOL    HW1 4473   1.665   3.129   5.077
 1410SOL    HW2 4474   1.547   3.214   5.036
 1411SOL     OW 4475   1.064   2.973   4.437
 1411SOL    HW1 4476   0.991   2.924   4.473
 1411SOL    HW2 4477   1.128   2.907   4.411
 1412SOL     OW 4478   1.025   2.105   4.690
 1412SOL    HW1 4479   1.023   2.058   4.606
 1412SOL    HW2 4480   1.020   2.036   4.756
 1413SOL     OW 4481   0.610   3.352   4.206
 1413SOL    HW1 4482   0.658   3.302   4.140
 1413SOL    HW2 4483   0.528   3.377   4.162
 1414SOL     OW 4484   1.728   2.253   5.104
 1414SOL    HW1 4485   1.801   2.316   5.105
 1414SOL    HW2 4486   1.758   2.183   5.046
 1415SOL     OW 4487   0.263   3.211   3.995
 1415SOL    HW1 4488   0.168   3.217   3.986
 1415SOL    HW2 4489   0.280   3.247   4.083
 1416SOL     OW 4490   0.122   2.833   5.424
 1416SOL    HW1 4491   0.074   2.883   5.490
 1416SOL    HW2 4492   0.208   2.819   5.463
 1417SOL     OW 4493   0.677   2.057   5.223
 1417SOL    HW1 4494   0.761   2.034   5.184
 1417SOL    HW2 4495   0.699   2.089   5.310
 1418SOL     OW 4496   0.103   2.171   3.760
 1418SOL    HW1 4497   0.012   2.148   3.773
 1418SOL    HW2 4498   0.100   2.255   3.714
 1419SOL     OW 4499   1.424   2.718   5.120
 1419SOL    HW1 4500   1.374   2.780   5.066
 1419SOL    HW2 4501   1.512   2.721   5.084
 1420SOL     OW 4502   0.068   2.055   4.063
 1420SOL    HW1 4503   0.013   2.030   3.989
 1420SOL    HW2 4504   0.148   2.002   4.053
 1421SOL     OW 4505   1.178   3.195   3.842
 1421SOL    HW1 4506   1.086   3.168   3.843
 1421SOL    HW2 4507   1.203   3.196   3.934
 1422SOL     OW 4508   0.622   2.693   5.160
 1422SOL    HW1 4509   0.678   2.770   5.146
 1422SOL    HW2 4510   0.683   2.620   5.166
 1423SOL     OW 4511   1.483   3.650   4.708
 1423SOL    HW1 4512   1.506   3.717   4.644
 1423SOL    HW2 4513   1.567   3.620   4.742
 1424SOL     OW 4514   0.713   2.421   5.423
 1424SOL    HW1 4515   0.761   2.479   5.483
 1424SOL    HW2 4516   0.732   2.333   5.456
 1425SOL     OW 4517   1.474   3.054   5.351
 1425SOL    HW1 4518   1.462   3.070   5.445
 1425SOL    HW2 4519   1.566   3.075   5.335
 1426SOL     OW 4520   0.368   3.614   5.286
 1426SOL    HW1 4521   0.281   3.652   5.271
 1426SOL    HW2 4522   0.350   3.533   5.333
 1427SOL     OW 4523   1.662   2.741   4.978
 1427SOL    HW1 4524   1.659   2.656   4.935
 1427SOL    HW2 4525   1.653   2.805   4.908
 1428SOL     OW 4526   1.216   2.181   4.181
 1428SOL    HW1 4527   1.277   2.108   4.175
 1428SOL    HW2 4528   1.245   2.232   4.257
 1429SOL     OW 4529   0.588   2.595   4.400
 1429SOL    HW1 4530   0.627   2.681   4.388
 1429SOL    HW2 4531   0.525   2.588   4.328
 1430SOL     OW 4532   1.755   2.225   5.377
 1430SOL    HW1 4533   1.742   2.242   5.284
 1430SOL    HW2 4534   1.681   2.169   5.402
 1431SOL     OW 4535   1.749   2.795   5.234
 1431SOL    HW1 4536   1.737   2.889   5.247
 1431SOL    HW2 4537   1.730   2.780   5.141
 1432SOL     OW 4538   0.868   3.226   3.771
 1432SOL    HW1 4539   0.827   3.253   3.853
 1432SOL    HW2 4540   0.880   3.307   3.721
 1433SOL     OW 4541   0.665   3.645   4.660
 1433SOL    HW1 4542   0.647   3.737   4.641
 1433SOL    HW2 4543   0.760   3.637   4.654
 1434SOL     OW 4544   0.870   2.835   4.577
 1434SOL    HW1 4545   0.919   2.761   4.614
 1434SOL    HW2 4546   0.829   2.877   4.653
 1435SOL     OW 4547   1.074   2.848   3.812
 1435SOL    HW1 4548   1.055   2.902   3.736
 1435SOL    HW2 4549   1.149   2.794   3.786
 1436SOL     OW 4550   1.844   3.415   4.565
 1436SOL    HW1 4551   1.765   3.404   4.512
 1436SOL    HW2 4552   1.834   3.353   4.637
 1437SOL     OW 4553   0.237   3.169   5.588
 1437SOL    HW1 4554   0.148   3.133   5.581
 1437SOL    HW2 4555   0.251   3.179   5.682
 1438SOL     OW 4556   0.152   3.145   4.424
 1438SOL    HW1 4557   0.118   3.101   4.502
 1438SOL    HW2 4558   0.179   3.073   4.366
 1439SOL     OW 4559   0.689   3.272   5.357
 1439SOL    HW1 4560   0.609   3.229   5.388
 1439SOL    HW2 4561   0.685   3.360   5.393
 1440SOL     OW 4562   1.810   2.043   4.959
 1440SOL    HW1 4563   1.817   1.948   4.972
 1440SOL    HW2 4564   1.822   2.055   4.865
 1441SOL     OW 4565   0.451   2.293   4.258
 1441SOL    HW1 4566   0.479   2.222   4.199
 1441SOL    HW2 4567   0.402   2.248   4.327
 1442SOL     OW 4568   1.697   3.346   4.813
 1442SOL    HW1 4569   1.618   3.327   4.763
 1442SOL    HW2 4570   1.701   3.278   4.880
 1443SOL     OW 4571   0.333   2.417   5.021
 1443SOL    HW1 4572   0.384   2.360   5.078
 1443SOL    HW2 4573   0.350   2.386   4.932
 1444SOL     OW 4574   0.833   3.441   4.398
 1444SOL    HW1 4575   0.810   3.508   4.332
 1444SOL    HW2 4576   0.758   3.382   4.399
 1445SOL     OW 4577   1.428   2.092   4.841
 1445SOL    HW1 4578   1.447   2.009   4.883
 1445SOL    HW2 4579   1.378   2.141   4.906
 1446SOL     OW 4580   1.009   1.878   4.858
 1446SOL    HW1 4581   0.954   1.813   4.815
 1446SOL    HW2 4582   1.096   1.839   4.859
 1447SOL     OW 4583   0.775   3.195   4.047
 1447SOL    HW1 4584   0.749   3.103   4.056
 1447SOL    HW2 4585   0.857   3.202   4.096
 1448SOL     OW 4586   0.622   3.418   5.012
 1448SOL    HW1 4587   0.621   3.501   5.061
 1448SOL    HW2 4588   0.710   3.413   4.975
 1449SOL     OW 4589   1.359   1.913   3.898
 1449SOL    HW1 4590   1.393   1.842   3.843
 1449SOL    HW2 4591   1.269   1.886   3.918
 1450SOL     OW 4592   1.296   2.326   4.401
 1450SOL    HW1 4593   1.244   2.407   4.404
 1450SOL    HW2 4594   1.291   2.291   4.489
 1451SOL     OW 4595   1.584   2.055   4.609
 1451SOL    HW1 4596   1.529   2.081   4.683
 1451SOL    HW2 4597   1.584   2.131   4.551
 1452SOL     OW 4598   0.065   2.927   4.003
 1452SOL    HW1 4599   0.154   2.890   4.004
 1452SOL    HW2 4600   0.008   2.852   4.021
 1453SOL     OW 4601   0.891   3.525   4.061
 1453SOL    HW1 4602   0.816   3.510   4.003
 1453SOL    HW2 4603   0.863   3.596   4.118
 1454SOL     OW 4604   0.173   2.514   5.704
 1454SOL    HW1 4605   0.173   2.453   5.778
 1454SOL    HW2 4606   0.218   2.468   5.634
 1455SOL     OW 4607   0.223   2.142   6.572
 1455SOL    HW1 4608   0.277   2.104   6.641
 1455SOL    HW2 4609   0.133   2.120   6.596
 1456SOL     OW 4610   6.987   2.245   6.237
 1456SOL    HW1 4611   6.940   2.242   6.321
 1456SOL    HW2 4612   0.010   2.154   6.220
 1457SOL     OW 4613   0.563   3.147   6.760
 1457SOL    HW1 4614   0.480   3.169   6.719
 1457SOL    HW2 4615   0.584   3.224   6.813
 1458SOL     OW 4616   1.573   3.377   6.296
 1458SOL    HW1 4617   1.527   3.354   6.376
 1458SOL    HW2 4618   1.505   3.381   6.229
 1459SOL     OW 4619   1.132   2.560   6.281
 1459SOL    HW1 4620   1.179   2.643   6.270
 1459SOL    HW2 4621   1.083   2.572   6.362
 1460SOL     OW 4622   1.782   2.458   5.810
 1460SOL    HW1 4623   1.753   2.454   5.719
 1460SOL    HW2 4624   1.740   2.383   5.852
 1461SOL     OW 4625   0.757   3.001   6.633
 1461SOL    HW1 4626   0.689   3.030   6.693
 1461SOL    HW2 4627   0.785   3.081   6.587
 1462SOL     OW 4628   0.685   2.858   6.231
 1462SOL    HW1 4629   0.752   2.852   6.299
 1462SOL    HW2 4630   0.617   2.914   6.269
 1463SOL     OW 4631   0.338   3.264   6.640
 1463SOL    HW1 4632   0.263   3.234   6.590
 1463SOL    HW2 4633   0.382   3.326   6.582
 1464SOL     OW 4634   1.603   2.304   6.332
 1464SOL    HW1 4635   1.531   2.319   6.270
 1464SOL    HW2 4636   1.596   2.375   6.395
 1465SOL     OW 4637   0.223   3.570   6.052
 1465SOL    HW1 4638   0.241   3.648   6.105
 1465SOL    HW2 4639   0.291   3.572   5.984
 1466SOL     OW 4640   0.287   3.305   6.104
 1466SOL    HW1 4641   0.259   3.396   6.110
 1466SOL    HW2 4642   0.242   3.260   6.175
 1467SOL     OW 4643   0.271   2.943   6.485
 1467SOL    HW1 4644   0.269   2.853   6.517
 1467SOL    HW2 4645   0.197   2.986   6.529
 1468SOL     OW 4646   0.610   3.664   6.978
 1468SOL    HW1 4647   0.520   3.650   0.008
 1468SOL    HW2 4648   0.632   3.751   0.011
 1469SOL     OW 4649   0.576   2.848   5.727
 1469SOL    HW1 4650   0.627   2.892   5.659
 1469SOL    HW2 4651   0.615   2.879   5.809
 1470SOL     OW 4652   0.136   2.472   6.159
 1470SOL    HW1 4653   0.067   2.409   6.181
 1470SOL    HW2 4654   0.121   2.546   6.217
 1471SOL     OW 4655   1.844   3.614   5.915
 1471SOL    HW1 4656   1.914   3.590   5.976
 1471SOL    HW2 4657   1.860   3.706   5.895
 1472SOL     OW 4658   0.036   3.455   5.734
 1472SOL    HW1 4659   0.027   3.361   5.748
 1472SOL    HW2 4660   6.952   3.492   5.763
 1473SOL     OW 4661   1.691   2.781   6.230
 1473SOL    HW1 4662   1.771   2.735   6.205
 1473SOL    HW2 4663   1.668   2.833   6.153
 1474SOL     OW 4664   1.651   2.965   6.015
 1474SOL    HW1 4665   1.737   2.964   5.974
 1474SOL    HW2 4666   1.658   3.029   6.086
 1475SOL     OW 4667   0.615   3.253   6.322
 1475SOL    HW1 4668   0.569   3.170   6.331
 1475SOL    HW2 4669   0.599   3.280   6.232
 1476SOL     OW 4670   0.822   1.867   6.100
 1476SOL    HW1 4671   0.861   1.950   6.076
 1476SOL    HW2 4672   0.728   1.885   6.105
 1477SOL     OW 4673   0.199   2.802   6.828
 1477SOL    HW1 4674   0.287   2.764   6.820
 1477SOL    HW2 4675   0.153   2.771   6.750
 1478SOL     OW 4676   1.531   2.863   5.786
 1478SOL    HW1 4677   1.462   2.806   5.819
 1478SOL    HW2 4678   1.574   2.896   5.865
 1479SOL     OW 4679   1.457   3.286   6.530
 1479SOL    HW1 4680   1.400   3.295   6.607
 1479SOL    HW2 4681   1.449   3.193   6.506
 1480SOL     OW 4682   1.650   3.621   6.162
 1480SOL    HW1 4683   1.633   3.585   6.075
 1480SOL    HW2 4684   1.636   3.548   6.221
 1481SOL     OW 4685   0.587   2.572   5.849
 1481SOL    HW1 4686   0.597   2.659   5.810
 1481SOL    HW2 4687   0.528   2.586   5.924
 1482SOL     OW 4688   1.275   2.227   6.518
 1482SOL    HW1 4689   1.187   2.193   6.528
 1482SOL    HW2 4690   1.328   2.176   6.580
 1483SOL     OW 4691   1.578   3.536   5.897
 1483SOL    HW1 4692   1.670   3.559   5.889
 1483SOL    HW2 4693   1.549   3.519   5.808
 1484SOL     OW 4694   0.797   2.473   0.054
 1484SOL    HW1 4695   0.731   2.512   0.110
 1484SOL    HW2 4696   0.747   2.420   6.991
 1485SOL     OW 4697   1.001   2.255   6.798
 1485SOL    HW1 4698   0.928   2.303   6.837
 1485SOL    HW2 4699   0.962   2.208   6.724
 1486SOL     OW 4700   1.054   2.560   6.010
 1486SOL    HW1 4701   1.073   2.554   6.103
 1486SOL    HW2 4702   0.970   2.515   6.000
 1487SOL     OW 4703   0.100   2.673   6.360
 1487SOL    HW1 4704   0.190   2.674   6.393
 1487SOL    HW2 4705   0.047   2.698   6.435
 1488SOL     OW 4706   0.105   3.701   0.167
 1488SOL    HW1 4707   0.088   3.672   0.257
 1488SOL    HW2 4708   0.019   3.701   0.126
 1489SOL     OW 4709   0.899   2.213   5.783
 1489SOL    HW1 4710   0.940   2.276   5.723
 1489SOL    HW2 4711   0.905   2.129   5.737
 1490SOL     OW 4712   1.382   3.004   6.125
 1490SOL    HW1 4713   1.461   2.993   6.073
 1490SOL    HW2 4714   1.329   3.066   6.075
 1491SOL     OW 4715   0.554   2.040   6.480
 1491SOL    HW1 4716   0.568   2.070   6.570
 1491SOL    HW2 4717   0.556   2.120   6.428
 1492SOL     OW 4718   0.998   3.307   6.053
 1492SOL    HW1 4719   0.969   3.382   6.002
 1492SOL    HW2 4720   0.972   3.327   6.143
 1493SOL     OW 4721   0.354   3.682   6.450
 1493SOL    HW1 4722   0.392   3.596   6.465
 1493SOL    HW2 4723   0.423   3.744   6.474
 1494SOL     OW 4724   1.806   2.913   6.452
 1494SOL    HW1 4725   1.755   2.891   6.375
 1494SOL    HW2 4726   1.743   2.912   6.524
 1495SOL     OW 4727   0.312   2.808   5.839
 1495SOL    HW1 4728   0.395   2.829   5.795
 1495SOL    HW2 4729   0.287   2.723   5.801
 1496SOL     OW 4730   1.481   2.614   6.303
 1496SOL    HW1 4731   1.479   2.572   6.389
 1496SOL    HW2 4732   1.560   2.668   6.305
 1497SOL     OW 4733   1.126   3.640   5.814
 1497SOL    HW1 4734   1.049   3.602   5.857
 1497SOL    HW2 4735   1.150   3.576   5.747
 1498SOL     OW 4736   1.628   3.245   5.678
 1498SOL    HW1 4737   1.587   3.330   5.663
 1498SOL    HW2 4738   1.561   3.181   5.656
 1499SOL     OW 4739   0.465   3.599   5.902
 1499SOL    HW1 4740   0.510   3.651   5.968
 1499SOL    HW2 4741   0.535   3.563   5.848
 1500SOL     OW 4742   1.399   1.969   6.029
 1500SOL    HW1 4743   1.392   1.943   5.937
 1500SOL    HW2 4744   1.493   1.974   6.045
 1501SOL     OW 4745   0.250   3.677   6.776
 1501SOL    HW1 4746   0.299   3.602   6.811
 1501SOL    HW2 4747   0.185   3.637   6.719
 1502SOL     OW 4748   0.941   3.560   6.479
 1502SOL    HW1 4749   1.022   3.512   6.498
 1502SOL    HW2 4750   0.900   3.510   6.409
 1503SOL     OW 4751   0.403   2.549   6.058
 1503SOL    HW1 4752   0.427   2.459   6.078
 1503SOL    HW2 4753   0.309   2.554   6.078
 1504SOL     OW 4754   0.650   1.977   5.688
 1504SOL    HW1 4755   0.707   1.902   5.707
 1504SOL    HW2 4756   0.594   1.947   5.616
 1505SOL     OW 4757   0.876   3.380   6.761
 1505SOL    HW1 4758   0.855   3.348   6.674
 1505SOL    HW2 4759   0.915   3.306   6.806
 1506SOL     OW 4760   0.818   3.249   6.524
 1506SOL    HW1 4761   0.902   3.239   6.480
 1506SOL    HW2 4762   0.754   3.256   6.452
 1507SOL     OW 4763   0.930   2.372   6.484
 1507SOL    HW1 4764   0.905   2.363   6.393
 1507SOL    HW2 4765   0.964   2.286   6.509
 1508SOL     OW 4766   0.553   1.924   6.083
 1508SOL    HW1 4767   0.472   1.923   6.134
 1508SOL    HW2 4768   0.544   2.000   6.025
 1509SOL     OW 4769   1.428   3.064   5.624
 1509SOL    HW1 4770   1.457   2.989   5.676
 1509SOL    HW2 4771   1.343   3.087   5.661
 1510SOL     OW 4772   0.286   1.909   5.781
 1510SOL    HW1 4773   0.339   1.980   5.744
 1510SOL    HW2 4774   0.349   1.846   5.815
 1511SOL     OW 4775   0.943   2.112   6.041
 1511SOL    HW1 4776   0.920   2.150   5.956
 1511SOL    HW2 4777   1.037   2.127   6.048
 1512SOL     OW 4778   1.216   3.437   6.382
 1512SOL    HW1 4779   1.231   3.503   6.314
 1512SOL    HW2 4780   1.292   3.444   6.439
 1513SOL     OW 4781   0.472   3.015   6.315
 1513SOL    HW1 4782   0.408   2.994   6.383
 1513SOL    HW2 4783   0.425   3.001   6.232
 1514SOL     OW 4784   1.262   3.653   6.200
 1514SOL    HW1 4785   1.310   3.716   6.146
 1514SOL    HW2 4786   1.191   3.705   6.239
 1515SOL     OW 4787   1.025   2.394   5.613
 1515SOL    HW1 4788   0.981   2.477   5.594
 1515SOL    HW2 4789   1.089   2.416   5.680
 1516SOL     OW 4790   0.584   2.088   6.751
 1516SOL    HW1 4791   0.624   2.009   6.787
 1516SOL    HW2 4792   0.492   2.083   6.779
 1517SOL     OW 4793   0.864   2.319   6.223
 1517SOL    HW1 4794   0.821   2.375   6.158
 1517SOL    HW2 4795   0.889   2.240   6.175
 1518SOL     OW 4796   1.022   1.911   6.325
 1518SOL    HW1 4797   0.959   1.905   6.252
 1518SOL    HW2 4798   0.996   1.840   6.384
 1519SOL     OW 4799   1.435   3.021   6.441
 1519SOL    HW1 4800   1.371   2.950   6.443
 1519SOL    HW2 4801   1.457   3.031   6.349
 1520SOL     OW 4802   1.466   2.471   6.545
 1520SOL    HW1 4803   1.407   2.397   6.556
 1520SOL    HW2 4804   1.525   2.467   6.620
 1521SOL     OW 4805   1.838   2.671   5.971
 1521SOL    HW1 4806   1.897   2.623   6.030
 1521SOL    HW2 4807   1.816   2.608   5.903
 1522SOL     OW 4808   0.500   3.286   5.734
 1522SOL    HW1 4809   0.421   3.260   5.781
 1522SOL    HW2 4810   0.491   3.245   5.647
 1523SOL     OW 4811   1.680   3.128   6.225
 1523SOL    HW1 4812   1.774   3.126   6.242
 1523SOL    HW2 4813   1.653   3.217   6.248
 1524SOL     OW 4814   1.393   2.435   5.657
 1524SOL    HW1 4815   1.332   2.413   5.727
 1524SOL    HW2 4816   1.478   2.406   5.689
 1525SOL     OW 4817   0.529   2.120   5.895
 1525SOL    HW1 4818   0.580   2.074   5.828
 1525SOL    HW2 4819   0.501   2.201   5.852
 1526SOL     OW 4820   1.757   3.054   0.177
 1526SOL    HW1 4821   1.851   3.040   0.177
 1526SOL    HW2 4822   1.747   3.146   0.154
 1527SOL     OW 4823   1.113   3.104   6.694
 1527SOL    HW1 4824   1.038   3.049   6.714
 1527SOL    HW2 4825   1.101   3.130   6.602
 1528SOL     OW 4826   1.618   2.937   6.645
 1528SOL    HW1 4827   1.617   3.006   6.711
 1528SOL    HW2 4828   1.545   2.959   6.587
 1529SOL     OW 4829   0.709   2.924   5.958
 1529SOL    HW1 4830   0.696   2.904   6.051
 1529SOL    HW2 4831   0.784   2.871   5.933
 1530SOL     OW 4832   0.441   2.666   6.849
 1530SOL    HW1 4833   0.487   2.692   6.929
 1530SOL    HW2 4834   0.404   2.580   6.869
 1531SOL     OW 4835   1.267   2.253   6.856
 1531SOL    HW1 4836   1.291   2.327   6.912
 1531SOL    HW2 4837   1.176   2.270   6.832
 1532SOL     OW 4838   0.081   3.434   6.862
 1532SOL    HW1 4839   0.043   3.452   6.948
 1532SOL    HW2 4840   0.176   3.440   6.876
 1533SOL     OW 4841   0.335   2.977   6.078
 1533SOL    HW1 4842   0.345   3.050   6.016
 1533SOL    HW2 4843   0.333   2.899   6.023
 1534SOL     OW 4844   0.544   2.393   6.447
 1534SOL    HW1 4845   0.558   2.451   6.373
 1534SOL    HW2 4846   0.613   2.416   6.509
 1535SOL     OW 4847   1.246   3.213   5.977
 1535SOL    HW1 4848   1.303   3.283   6.009
 1535SOL    HW2 4849   1.159   3.234   6.010
 1536SOL     OW 4850   1.288   3.307   6.750
 1536SOL    HW1 4851   1.323   3.284   6.836
 1536SOL    HW2 4852   1.224   3.240   6.731
 1537SOL     OW 4853   1.576   2.481   6.069
 1537SOL    HW1 4854   1.527   2.526   6.139
 1537SOL    HW2 4855   1.620   2.552   6.023
 1538SOL     OW 4856   0.360   3.439   6.847
 1538SOL    HW1 4857   0.344   3.369   6.784
 1538SOL    HW2 4858   0.452   3.430   6.870
 1539SOL     OW 4859   0.588   2.734   6.621
 1539SOL    HW1 4860   0.620   2.825   6.623
 1539SOL    HW2 4861   0.539   2.724   6.703
 1540SOL     OW 4862   1.339   2.723   6.588
 1540SOL    HW1 4863   1.253   2.696   6.554
 1540SOL    HW2 4864   1.392   2.643   6.583
 1541SOL     OW 4865   1.198   2.388   5.847
 1541SOL    HW1 4866   1.207   2.310   5.901
 1541SOL    HW2 4867   1.156   2.453   5.904
 1542SOL     OW 4868   0.326   2.064   6.825
 1542SOL    HW1 4869   0.307   2.071   6.919
 1542SOL    HW2 4870   0.299   1.975   6.802
 1543SOL     OW 4871   0.049   3.160   6.831
 1543SOL    HW1 4872   0.085   3.098   6.895
 1543SOL    HW2 4873   0.087   3.244   6.854
 1544SOL     OW 4874   0.721   2.486   6.636
 1544SOL    HW1 4875   0.799   2.472   6.583
 1544SOL    HW2 4876   0.697   2.577   6.620
 1545SOL     OW 4877   0.305   1.923   6.205
 1545SOL    HW1 4878   0.284   2.014   6.226
 1545SOL    HW2 4879   0.314   1.880   6.289
 1546SOL     OW 4880   1.624   2.243   5.943
 1546SOL    HW1 4881   1.652   2.177   6.007
 1546SOL    HW2 4882   1.599   2.319   5.996
 1547SOL     OW 4883   1.027   2.622   6.551
 1547SOL    HW1 4884   1.017   2.637   6.645
 1547SOL    HW2 4885   1.003   2.530   6.539
 1548SOL     OW 4886   1.919   3.330   0.198
 1548SOL    HW1 4887   1.898   3.363   0.111
 1548SOL    HW2 4888   1.922   3.409   0.253
 1549SOL     OW 4889   1.525   2.134   5.711
 1549SOL    HW1 4890   1.463   2.067   5.741
 1549SOL    HW2 4891   1.561   2.171   5.791
 1550SOL     OW 4892   1.285   2.686   5.613
 1550SOL    HW1 4893   1.328   2.600   5.618
 1550SOL    HW2 4894   1.318   2.724   5.532
 1551SOL     OW 4895   1.071   3.202   6.438
 1551SOL    HW1 4896   1.078   3.130   6.376
 1551SOL    HW2 4897   1.127   3.271   6.402
 1552SOL     OW 4898   0.319   2.667   6.536
 1552SOL    HW1 4899   0.413   2.688   6.533
 1552SOL    HW2 4900   0.315   2.577   6.567
 1553SOL     OW 4901   0.327   2.388   6.605
 1553SOL    HW1 4902   0.291   2.302   6.587
 1553SOL    HW2 4903   0.405   2.393   6.550
 1554SOL     OW 4904   1.145   2.106   0.061
 1554SOL    HW1 4905   1.216   2.129   0.120
 1554SOL    HW2 4906   1.173   2.140   6.976
 1555SOL     OW 4907   6.994   3.187   5.807
 1555SOL    HW1 4908   6.924   3.208   5.869
 1555SOL    HW2 4909   0.018   3.096   5.828
 1556SOL     OW 4910   0.094   3.613   6.537
 1556SOL    HW1 4911   0.081   3.542   6.474
 1556SOL    HW2 4912   0.176   3.654   6.509
 1557SOL     OW 4913   0.490   3.439   6.490
 1557SOL    HW1 4914   0.558   3.501   6.515
 1557SOL    HW2 4915   0.535   3.377   6.433
 1558SOL     OW 4916   0.975   2.649   6.824
 1558SOL    HW1 4917   1.053   2.629   6.876
 1558SOL    HW2 4918   0.903   2.607   6.871
 1559SOL     OW 4919   0.058   2.478   6.694
 1559SOL    HW1 4920   0.113   2.433   6.629
 1559SOL    HW2 4921   0.083   2.438   6.777
 1560SOL     OW 4922   0.816   2.431   5.952
 1560SOL    HW1 4923   0.825   2.357   5.893
 1560SOL    HW2 4924   0.741   2.480   5.918
 1561SOL     OW 4925   1.648   2.472   6.749
 1561SOL    HW1 4926   1.636   2.416   6.826
 1561SOL    HW2 4927   1.740   2.460   6.726
 1562SOL     OW 4928   0.679   2.329   6.853
 1562SOL    HW1 4929   0.649   2.244   6.819
 1562SOL    HW2 4930   0.688   2.384   6.775
 1563SOL     OW 4931   0.942   3.522   6.997
 1563SOL    HW1 4932   0.915   3.511   6.906
 1563SOL    HW2 4933   0.920   3.613   0.017
 1564SOL     OW 4934   0.447   2.344   5.763
 1564SOL    HW1 4935   0.499   2.422   5.782
 1564SOL    HW2 4936   0.370   2.353   5.819
 1565SOL     OW 4937   0.161   2.981   0.024
 1565SOL    HW1 4938   0.189   2.933   0.102
 1565SOL    HW2 4939   0.171   2.919   6.952
 1566SOL     OW 4940   1.271   2.858   6.817
 1566SOL    HW1 4941   1.306   2.815   6.739
 1566SOL    HW2 4942   1.265   2.950   6.793
 1567SOL     OW 4943   1.317   2.720   5.888
 1567SOL    HW1 4944   1.244   2.687   5.941
 1567SOL    HW2 4945   1.289   2.705   5.797
 1568SOL     OW 4946   1.785   3.614   6.744
 1568SOL    HW1 4947   1.844   3.631   6.671
 1568SOL    HW2 4948   1.748   3.527   6.726
 1569SOL     OW 4949   1.245   3.584   6.700
 1569SOL    HW1 4950   1.325   3.610   6.655
 1569SOL    HW2 4951   1.256   3.491   6.719
 1570SOL     OW 4952   0.056   3.096   6.570
 1570SOL    HW1 4953   0.063   3.118   6.663
 1570SOL    HW2 4954   6.962   3.090   6.554
 1571SOL     OW 4955   1.723   2.021   6.089
 1571SOL    HW1 4956   1.793   2.004   6.026
 1571SOL    HW2 4957   1.707   1.936   6.129
 1572SOL     OW 4958   1.394   3.430   6.079
 1572SOL    HW1 4959   1.451   3.464   6.010
 1572SOL    HW2 4960   1.342   3.505   6.107
 1573SOL     OW 4961   1.277   2.791   6.255
 1573SOL    HW1 4962   1.351   2.731   6.266
 1573SOL    HW2 4963   1.312   2.862   6.202
 1574SOL     OW 4964   0.673   3.492   5.742
 1574SOL    HW1 4965   0.685   3.507   5.648
 1574SOL    HW2 4966   0.619   3.414   5.747
 1575SOL     OW 4967   1.842   2.034   6.562
 1575SOL    HW1 4968   1.871   1.947   6.536
 1575SOL    HW2 4969   1.755   2.043   6.522
 1576SOL     OW 4970   0.264   2.177   6.297
 1576SOL    HW1 4971   0.195   2.242   6.280
 1576SOL    HW2 4972   0.260   2.162   6.391
 1577SOL     OW 4973   1.208   3.462   5.620
 1577SOL    HW1 4974   1.197   3.370   5.646
 1577SOL    HW2 4975   1.142   3.476   5.552
 1578SOL     OW 4976   0.774   2.883   6.958
 1578SOL    HW1 4977   0.832   2.840   6.895
 1578SOL    HW2 4978   0.825   2.956   6.991
 1579SOL     OW 4979   0.916   2.772   5.878
 1579SOL    HW1 4980   0.975   2.805   5.811
 1579SOL    HW2 4981   0.967   2.705   5.924
 1580SOL     OW 4982   1.488   3.493   5.632
 1580SOL    HW1 4983   1.394   3.481   5.616
 1580SOL    HW2 4984   1.526   3.498   5.545
 1581SOL     OW 4985   1.610   3.136   6.826
 1581SOL    HW1 4986   1.688   3.149   6.880
 1581SOL    HW2 4987   1.540   3.118   6.889
 1582SOL     OW 4988   1.063   2.972   6.297
 1582SOL    HW1 4989   0.990   2.921   6.333
 1582SOL    HW2 4990   1.128   2.906   6.272
 1583SOL     OW 4991   1.021   2.102   6.539
 1583SOL    HW1 4992   1.021   2.053   6.457
 1583SOL    HW2 4993   1.021   2.035   6.607
 1584SOL     OW 4994   0.610   3.352   6.067
 1584SOL    HW1 4995   0.658   3.302   6.001
 1584SOL    HW2 4996   0.527   3.376   6.025
 1585SOL     OW 4997   1.697   2.287   6.946
 1585SOL    HW1 4998   1.753   2.290   0.023
 1585SOL    HW2 4999   1.702   2.196   6.916
 1586SOL     OW 5000   0.263   3.211   5.858
 1586SOL    HW1 5001   0.168   3.217   5.848
 1586SOL    HW2 5002   0.280   3.247   5.945
 1587SOL     OW 5003   0.676   2.040   0.082
 1587SOL    HW1 5004   0.765   2.004   0.080
 1587SOL    HW2 5005   0.687   2.129   0.115
 1588SOL     OW 5006   0.104   2.171   5.622
 1588SOL    HW1 5007   0.012   2.147   5.636
 1588SOL    HW2 5008   0.100   2.255   5.576
 1589SOL     OW 5009   0.068   2.055   5.925
 1589SOL    HW1 5010   0.014   2.030   5.851
 1589SOL    HW2 5011   0.147   2.002   5.916
 1590SOL     OW 5012   1.178   3.195   5.704
 1590SOL    HW1 5013   1.086   3.167   5.705
 1590SOL    HW2 5014   1.203   3.196   5.796
 1591SOL     OW 5015   1.485   3.646   6.573
 1591SOL    HW1 5016   1.502   3.714   6.509
 1591SOL    HW2 5017   1.571   3.620   6.605
 1592SOL     OW 5018   1.500   3.166   0.274
 1592SOL    HW1 5019   1.416   3.128   0.300
 1592SOL    HW2 5020   1.558   3.090   0.265
 1593SOL     OW 5021   0.374   3.633   0.104
 1593SOL    HW1 5022   0.291   3.679   0.107
 1593SOL    HW2 5023   0.399   3.622   0.196
 1594SOL     OW 5024   1.704   2.740   6.832
 1594SOL    HW1 5025   1.671   2.655   6.802
 1594SOL    HW2 5026   1.670   2.803   6.769
 1595SOL     OW 5027   1.216   2.181   6.042
 1595SOL    HW1 5028   1.277   2.108   6.037
 1595SOL    HW2 5029   1.245   2.232   6.119
 1596SOL     OW 5030   0.585   2.597   6.263
 1596SOL    HW1 5031   0.626   2.682   6.250
 1596SOL    HW2 5032   0.524   2.588   6.190
 1597SOL     OW 5033   1.767   2.769   0.103
 1597SOL    HW1 5034   1.762   2.864   0.118
 1597SOL    HW2 5035   1.746   2.759   0.010
 1598SOL     OW 5036   0.867   3.226   5.633
 1598SOL    HW1 5037   0.827   3.253   5.715
 1598SOL    HW2 5038   0.879   3.307   5.584
 1599SOL     OW 5039   0.666   3.644   6.526
 1599SOL    HW1 5040   0.648   3.735   6.504
 1599SOL    HW2 5041   0.761   3.636   6.519
 1600SOL     OW 5042   0.871   2.833   6.439
 1600SOL    HW1 5043   0.918   2.760   6.479
 1600SOL    HW2 5044   0.832   2.879   6.514
 1601SOL     OW 5045   1.074   2.848   5.674
 1601SOL    HW1 5046   1.055   2.902   5.597
 1601SOL    HW2 5047   1.149   2.794   5.648
 1602SOL     OW 5048   1.849   3.415   6.425
 1602SOL    HW1 5049   1.767   3.403   6.377
 1602SOL    HW2 5050   1.848   3.348   6.493
 1603SOL     OW 5051   0.153   3.146   6.285
 1603SOL    HW1 5052   0.119   3.102   6.364
 1603SOL    HW2 5053   0.178   3.074   6.227
 1604SOL     OW 5054   1.810   2.031   6.838
 1604SOL    HW1 5055   1.794   1.937   6.832
 1604SOL    HW2 5056   1.822   2.059   6.747
 1605SOL     OW 5057   0.452   2.293   6.119
 1605SOL    HW1 5058   0.480   2.223   6.060
 1605SOL    HW2 5059   0.402   2.249   6.187
 1606SOL     OW 5060   1.681   3.370   6.678
 1606SOL    HW1 5061   1.608   3.347   6.620
 1606SOL    HW2 5062   1.687   3.296   6.739
 1607SOL     OW 5063   0.311   2.400   6.882
 1607SOL    HW1 5064   0.377   2.340   6.917
 1607SOL    HW2 5065   0.322   2.395   6.787
 1608SOL     OW 5066   0.833   3.441   6.257
 1608SOL    HW1 5067   0.811   3.509   6.193
 1608SOL    HW2 5068   0.757   3.383   6.257
 1609SOL     OW 5069   1.432   2.100   6.704
 1609SOL    HW1 5070   1.456   2.023   6.754
 1609SOL    HW2 5071   1.382   2.154   6.764
 1610SOL     OW 5072   1.018   1.882   6.706
 1610SOL    HW1 5073   0.959   1.811   6.679
 1610SOL    HW2 5074   1.103   1.839   6.717
 1611SOL     OW 5075   0.775   3.195   5.909
 1611SOL    HW1 5076   0.749   3.103   5.917
 1611SOL    HW2 5077   0.857   3.202   5.958
 1612SOL     OW 5078   0.630   3.416   6.872
 1612SOL    HW1 5079   0.629   3.509   6.895
 1612SOL    HW2 5080   0.714   3.404   6.827
 1613SOL     OW 5081   1.359   1.913   5.760
 1613SOL    HW1 5082   1.394   1.842   5.706
 1613SOL    HW2 5083   1.269   1.886   5.780
 1614SOL     OW 5084   1.296   2.326   6.263
 1614SOL    HW1 5085   1.244   2.406   6.267
 1614SOL    HW2 5086   1.290   2.288   6.351
 1615SOL     OW 5087   1.585   2.057   6.473
 1615SOL    HW1 5088   1.528   2.083   6.546
 1615SOL    HW2 5089   1.584   2.132   6.414
 1616SOL     OW 5090   0.065   2.926   5.865
 1616SOL    HW1 5091   0.153   2.889   5.866
 1616SOL    HW2 5092   0.007   2.852   5.883
 1617SOL     OW 5093   0.891   3.525   5.923
 1617SOL    HW1 5094   0.816   3.510   5.865
 1617SOL    HW2 5095   0.863   3.597   5.980
 1618SOL     OW 5096   0.238   4.377   0.132
 1618SOL    HW1 5097   0.162   4.332   0.168
 1618SOL    HW2 5098   0.246   4.344   0.042
 1619SOL     OW 5099   0.227   3.998   0.991
 1619SOL    HW1 5100   0.276   3.962   1.064
 1619SOL    HW2 5101   0.135   3.980   1.012
 1620SOL     OW 5102   6.984   4.111   0.656
 1620SOL    HW1 5103   6.937   4.110   0.739
 1620SOL    HW2 5104   0.007   4.019   0.640
 1621SOL     OW 5105   0.570   5.023   1.188
 1621SOL    HW1 5106   0.485   5.028   1.145
 1621SOL    HW2 5107   0.587   5.112   1.219
 1622SOL     OW 5108   1.572   5.241   0.709
 1622SOL    HW1 5109   1.529   5.215   0.791
 1622SOL    HW2 5110   1.502   5.241   0.644
 1623SOL     OW 5111   1.131   4.422   0.694
 1623SOL    HW1 5112   1.181   4.503   0.683
 1623SOL    HW2 5113   1.084   4.434   0.777
 1624SOL     OW 5114   1.792   4.299   0.196
 1624SOL    HW1 5115   1.726   4.348   0.147
 1624SOL    HW2 5116   1.742   4.243   0.256
 1625SOL     OW 5117   0.743   4.860   1.048
 1625SOL    HW1 5118   0.677   4.898   1.107
 1625SOL    HW2 5119   0.783   4.935   1.006
 1626SOL     OW 5120   0.876   4.483   1.824
 1626SOL    HW1 5121   0.868   4.553   1.890
 1626SOL    HW2 5122   0.897   4.529   1.743
 1627SOL     OW 5123   0.684   4.717   0.647
 1627SOL    HW1 5124   0.751   4.713   0.714
 1627SOL    HW2 5125   0.616   4.774   0.684
 1628SOL     OW 5126   0.715   4.872   1.822
 1628SOL    HW1 5127   0.764   4.949   1.853
 1628SOL    HW2 5128   0.637   4.909   1.780
 1629SOL     OW 5129   0.338   5.139   1.066
 1629SOL    HW1 5130   0.264   5.102   1.017
 1629SOL    HW2 5131   0.383   5.196   1.003
 1630SOL     OW 5132   1.458   5.227   1.363
 1630SOL    HW1 5133   1.513   5.305   1.372
 1630SOL    HW2 5134   1.389   5.238   1.428
 1631SOL     OW 5135   0.442   4.115   1.491
 1631SOL    HW1 5136   0.520   4.059   1.496
 1631SOL    HW2 5137   0.369   4.054   1.501
 1632SOL     OW 5138   1.603   4.167   0.746
 1632SOL    HW1 5139   1.529   4.184   0.687
 1632SOL    HW2 5140   1.604   4.242   0.805
 1633SOL     OW 5141   0.197   5.473   0.465
 1633SOL    HW1 5142   0.236   5.537   0.524
 1633SOL    HW2 5143   0.271   5.437   0.416
 1634SOL     OW 5144   1.138   5.067   1.695
 1634SOL    HW1 5145   1.179   5.059   1.781
 1634SOL    HW2 5146   1.086   4.987   1.686
 1635SOL     OW 5147   0.278   5.189   0.539
 1635SOL    HW1 5148   0.243   5.275   0.562
 1635SOL    HW2 5149   0.241   5.130   0.605
 1636SOL     OW 5150   0.274   4.808   0.905
 1636SOL    HW1 5151   0.267   4.716   0.933
 1636SOL    HW2 5152   0.201   4.851   0.949
 1637SOL     OW 5153   0.602   5.518   1.426
 1637SOL    HW1 5154   0.519   5.501   1.470
 1637SOL    HW2 5155   0.626   5.606   1.454
 1638SOL     OW 5156   0.580   4.689   0.148
 1638SOL    HW1 5157   0.638   4.711   0.074
 1638SOL    HW2 5158   0.616   4.737   0.222
 1639SOL     OW 5159   1.595   3.852   1.463
 1639SOL    HW1 5160   1.622   3.932   1.417
 1639SOL    HW2 5161   1.573   3.882   1.552
 1640SOL     OW 5162   0.130   4.341   0.572
 1640SOL    HW1 5163   0.063   4.278   0.599
 1640SOL    HW2 5164   0.119   4.415   0.633
 1641SOL     OW 5165   1.846   5.483   0.337
 1641SOL    HW1 5166   1.914   5.454   0.399
 1641SOL    HW2 5167   1.848   5.579   0.343
 1642SOL     OW 5168   6.972   5.280   0.122
 1642SOL    HW1 5169   6.963   5.187   0.144
 1642SOL    HW2 5170   0.041   5.311   0.181
 1643SOL     OW 5171   1.691   4.640   0.647
 1643SOL    HW1 5172   1.769   4.593   0.617
 1643SOL    HW2 5173   1.667   4.695   0.573
 1644SOL     OW 5174   1.650   4.823   0.441
 1644SOL    HW1 5175   1.721   4.840   0.379
 1644SOL    HW2 5176   1.662   4.888   0.510
 1645SOL     OW 5177   0.151   4.455   1.574
 1645SOL    HW1 5178   0.245   4.466   1.562
 1645SOL    HW2 5179   0.120   4.540   1.606
 1646SOL     OW 5180   0.617   5.113   0.740
 1646SOL    HW1 5181   0.571   5.030   0.749
 1646SOL    HW2 5182   0.604   5.137   0.648
 1647SOL     OW 5183   1.284   4.959   1.420
 1647SOL    HW1 5184   1.314   4.890   1.360
 1647SOL    HW2 5185   1.344   4.954   1.495
 1648SOL     OW 5186   0.824   3.732   0.520
 1648SOL    HW1 5187   0.864   3.816   0.495
 1648SOL    HW2 5188   0.730   3.751   0.523
 1649SOL     OW 5189   0.202   4.684   1.261
 1649SOL    HW1 5190   0.283   4.635   1.244
 1649SOL    HW2 5191   0.140   4.652   1.196
 1650SOL     OW 5192   1.483   4.749   0.206
 1650SOL    HW1 5193   1.421   4.686   0.244
 1650SOL    HW2 5194   1.567   4.728   0.247
 1651SOL     OW 5195   1.183   5.539   1.627
 1651SOL    HW1 5196   1.188   5.600   1.553
 1651SOL    HW2 5197   1.201   5.453   1.589
 1652SOL     OW 5198   0.361   3.974   1.839
 1652SOL    HW1 5199   0.399   4.056   1.872
 1652SOL    HW2 5200   0.267   3.984   1.854
 1653SOL     OW 5201   1.467   5.145   0.944
 1653SOL    HW1 5202   1.401   5.160   1.012
 1653SOL    HW2 5203   1.455   5.053   0.919
 1654SOL     OW 5204   1.650   5.482   0.581
 1654SOL    HW1 5205   1.626   5.450   0.494
 1654SOL    HW2 5206   1.634   5.408   0.640
 1655SOL     OW 5207   0.604   4.439   0.264
 1655SOL    HW1 5208   0.606   4.527   0.226
 1655SOL    HW2 5209   0.542   4.446   0.337
 1656SOL     OW 5210   1.278   4.092   0.934
 1656SOL    HW1 5211   1.190   4.057   0.943
 1656SOL    HW2 5212   1.332   4.038   0.992
 1657SOL     OW 5213   1.577   5.405   0.321
 1657SOL    HW1 5214   1.672   5.417   0.311
 1657SOL    HW2 5215   1.545   5.401   0.231
 1658SOL     OW 5216   0.790   4.342   1.446
 1658SOL    HW1 5217   0.765   4.315   1.534
 1658SOL    HW2 5218   0.758   4.272   1.389
 1659SOL     OW 5219   1.392   4.198   1.678
 1659SOL    HW1 5220   1.396   4.243   1.762
 1659SOL    HW2 5221   1.448   4.122   1.688
 1660SOL     OW 5222   0.948   4.608   1.587
 1660SOL    HW1 5223   1.004   4.541   1.547
 1660SOL    HW2 5224   0.900   4.646   1.513
 1661SOL     OW 5225   0.995   4.133   1.231
 1661SOL    HW1 5226   0.905   4.149   1.260
 1661SOL    HW2 5227   0.986   4.090   1.146
 1662SOL     OW 5228   1.057   4.424   0.425
 1662SOL    HW1 5229   1.077   4.421   0.519
 1662SOL    HW2 5230   0.973   4.379   0.417
 1663SOL     OW 5231   0.100   4.537   0.776
 1663SOL    HW1 5232   0.189   4.533   0.811
 1663SOL    HW2 5233   0.046   4.563   0.850
 1664SOL     OW 5234   0.109   5.592   1.593
 1664SOL    HW1 5235   0.125   5.569   1.684
 1664SOL    HW2 5236   0.017   5.569   1.578
 1665SOL     OW 5237   0.891   4.069   0.207
 1665SOL    HW1 5238   0.938   4.124   0.145
 1665SOL    HW2 5239   0.914   3.979   0.181
 1666SOL     OW 5240   1.701   4.293   1.831
 1666SOL    HW1 5241   1.668   4.368   1.781
 1666SOL    HW2 5242   1.730   4.230   1.765
 1667SOL     OW 5243   1.386   4.865   0.556
 1667SOL    HW1 5244   1.465   4.855   0.503
 1667SOL    HW2 5245   1.331   4.926   0.507
 1668SOL     OW 5246   0.558   3.905   0.899
 1668SOL    HW1 5247   0.562   3.930   0.991
 1668SOL    HW2 5248   0.560   3.988   0.851
 1669SOL     OW 5249   0.993   5.162   0.474
 1669SOL    HW1 5250   0.966   5.240   0.425
 1669SOL    HW2 5251   0.967   5.182   0.565
 1670SOL     OW 5252   0.355   5.542   0.867
 1670SOL    HW1 5253   0.394   5.455   0.878
 1670SOL    HW2 5254   0.425   5.603   0.893
 1671SOL     OW 5255   1.803   4.770   0.876
 1671SOL    HW1 5256   1.752   4.752   0.796
 1671SOL    HW2 5257   1.738   4.778   0.945
 1672SOL     OW 5258   1.226   5.265   1.514
 1672SOL    HW1 5259   1.215   5.193   1.576
 1672SOL    HW2 5260   1.157   5.251   1.448
 1673SOL     OW 5261   0.305   4.662   0.220
 1673SOL    HW1 5262   0.394   4.678   0.190
 1673SOL    HW2 5263   0.289   4.570   0.198
 1674SOL     OW 5264   1.484   4.472   0.720
 1674SOL    HW1 5265   1.482   4.435   0.808
 1674SOL    HW2 5266   1.561   4.528   0.718
 1675SOL     OW 5267   0.474   4.990   1.735
 1675SOL    HW1 5268   0.448   4.998   1.644
 1675SOL    HW2 5269   0.392   4.989   1.784
 1676SOL     OW 5270   1.123   5.495   0.234
 1676SOL    HW1 5271   1.057   5.450   0.287
 1676SOL    HW2 5272   1.154   5.428   0.174
 1677SOL     OW 5273   0.195   3.981   1.488
 1677SOL    HW1 5274   0.114   4.032   1.482
 1677SOL    HW2 5275   0.169   3.900   1.532
 1678SOL     OW 5276   1.630   5.158   0.079
 1678SOL    HW1 5277   1.587   5.244   0.076
 1678SOL    HW2 5278   1.577   5.107   0.140
 1679SOL     OW 5279   0.474   5.439   0.354
 1679SOL    HW1 5280   0.511   5.506   0.411
 1679SOL    HW2 5281   0.548   5.405   0.306
 1680SOL     OW 5282   1.403   3.832   0.450
 1680SOL    HW1 5283   1.400   3.805   0.358
 1680SOL    HW2 5284   1.497   3.840   0.469
 1681SOL     OW 5285   0.257   5.517   1.223
 1681SOL    HW1 5286   0.303   5.441   1.260
 1681SOL    HW2 5287   0.210   5.481   1.147
 1682SOL     OW 5288   0.940   5.425   0.896
 1682SOL    HW1 5289   1.020   5.377   0.918
 1682SOL    HW2 5290   0.899   5.373   0.827
 1683SOL     OW 5291   0.405   4.416   0.464
 1683SOL    HW1 5292   0.419   4.323   0.483
 1683SOL    HW2 5293   0.312   4.430   0.484
 1684SOL     OW 5294   1.525   3.948   1.723
 1684SOL    HW1 5295   1.537   3.968   1.816
 1684SOL    HW2 5296   1.457   3.881   1.721
 1685SOL     OW 5297   0.762   4.003   1.756
 1685SOL    HW1 5298   0.844   3.953   1.752
 1685SOL    HW2 5299   0.716   3.968   1.832
 1686SOL     OW 5300   0.877   5.249   1.195
 1686SOL    HW1 5301   0.858   5.210   1.109
 1686SOL    HW2 5302   0.945   5.193   1.232
 1687SOL     OW 5303   1.337   4.314   1.433
 1687SOL    HW1 5304   1.369   4.283   1.518
 1687SOL    HW2 5305   1.375   4.401   1.424
 1688SOL     OW 5306   0.819   5.111   0.950
 1688SOL    HW1 5307   0.904   5.101   0.906
 1688SOL    HW2 5308   0.756   5.119   0.878
 1689SOL     OW 5309   0.930   4.232   0.900
 1689SOL    HW1 5310   0.903   4.223   0.809
 1689SOL    HW2 5311   0.960   4.145   0.926
 1690SOL     OW 5312   0.557   3.792   0.502
 1690SOL    HW1 5313   0.478   3.794   0.555
 1690SOL    HW2 5314   0.545   3.863   0.438
 1691SOL     OW 5315   1.409   4.935   0.002
 1691SOL    HW1 5316   1.439   4.864   0.057
 1691SOL    HW2 5317   1.335   4.973   0.050
 1692SOL     OW 5318   0.946   3.974   0.462
 1692SOL    HW1 5319   0.920   4.014   0.380
 1692SOL    HW2 5320   1.041   3.989   0.467
 1693SOL     OW 5321   1.081   4.410   1.456
 1693SOL    HW1 5322   1.017   4.338   1.460
 1693SOL    HW2 5323   1.166   4.366   1.451
 1694SOL     OW 5324   1.215   5.298   0.796
 1694SOL    HW1 5325   1.231   5.362   0.727
 1694SOL    HW2 5326   1.287   5.312   0.858
 1695SOL     OW 5327   0.474   4.877   0.733
 1695SOL    HW1 5328   0.408   4.856   0.799
 1695SOL    HW2 5329   0.430   4.859   0.649
 1696SOL     OW 5330   1.262   5.515   0.613
 1696SOL    HW1 5331   1.312   5.579   0.562
 1696SOL    HW2 5332   1.193   5.567   0.654
 1697SOL     OW 5333   1.069   4.319   0.027
 1697SOL    HW1 5334   0.977   4.330   0.052
 1697SOL    HW2 5335   1.113   4.297   0.109
 1698SOL     OW 5336   0.070   4.277   1.373
 1698SOL    HW1 5337   0.163   4.270   1.351
 1698SOL    HW2 5338   0.067   4.343   1.442
 1699SOL     OW 5339   0.568   3.949   1.171
 1699SOL    HW1 5340   0.610   3.877   1.217
 1699SOL    HW2 5341   0.476   3.945   1.199
 1700SOL     OW 5342   0.863   4.178   0.641
 1700SOL    HW1 5343   0.829   4.235   0.573
 1700SOL    HW2 5344   0.890   4.099   0.595
 1701SOL     OW 5345   1.017   3.779   0.746
 1701SOL    HW1 5346   0.957   3.771   0.672
 1701SOL    HW2 5347   0.995   3.704   0.802
 1702SOL     OW 5348   1.441   4.884   0.859
 1702SOL    HW1 5349   1.369   4.821   0.859
 1702SOL    HW2 5350   1.467   4.891   0.767
 1703SOL     OW 5351   1.466   4.335   0.966
 1703SOL    HW1 5352   1.408   4.259   0.970
 1703SOL    HW2 5353   1.523   4.326   1.042
 1704SOL     OW 5354   1.822   4.525   0.396
 1704SOL    HW1 5355   1.885   4.466   0.437
 1704SOL    HW2 5356   1.821   4.499   0.304
 1705SOL     OW 5357   0.474   5.146   0.173
 1705SOL    HW1 5358   0.437   5.078   0.229
 1705SOL    HW2 5359   0.422   5.142   0.092
 1706SOL     OW 5360   1.675   4.988   0.652
 1706SOL    HW1 5361   1.770   4.987   0.664
 1706SOL    HW2 5362   1.650   5.079   0.666
 1707SOL     OW 5363   1.390   4.276   0.062
 1707SOL    HW1 5364   1.333   4.273   0.139
 1707SOL    HW2 5365   1.444   4.198   0.069
 1708SOL     OW 5366   0.510   3.979   0.311
 1708SOL    HW1 5367   0.520   3.923   0.233
 1708SOL    HW2 5368   0.487   4.065   0.275
 1709SOL     OW 5369   1.747   4.967   1.558
 1709SOL    HW1 5370   1.834   4.929   1.550
 1709SOL    HW2 5371   1.762   5.056   1.589
 1710SOL     OW 5372   1.053   5.077   1.331
 1710SOL    HW1 5373   0.977   5.046   1.380
 1710SOL    HW2 5374   1.128   5.035   1.373
 1711SOL     OW 5375   1.609   5.353   1.660
 1711SOL    HW1 5376   1.601   5.387   1.571
 1711SOL    HW2 5377   1.690   5.302   1.658
 1712SOL     OW 5378   1.137   4.937   1.101
 1712SOL    HW1 5379   1.076   4.975   1.165
 1712SOL    HW2 5380   1.108   4.972   1.017
 1713SOL     OW 5381   1.621   4.818   1.075
 1713SOL    HW1 5382   1.614   4.882   1.146
 1713SOL    HW2 5383   1.548   4.838   1.017
 1714SOL     OW 5384   0.918   3.816   1.390
 1714SOL    HW1 5385   0.941   3.797   1.299
 1714SOL    HW2 5386   0.997   3.855   1.427
 1715SOL     OW 5387   0.985   4.839   1.722
 1715SOL    HW1 5388   0.894   4.856   1.748
 1715SOL    HW2 5389   0.981   4.760   1.669
 1716SOL     OW 5390   0.712   4.785   0.374
 1716SOL    HW1 5391   0.697   4.765   0.466
 1716SOL    HW2 5392   0.788   4.733   0.349
 1717SOL     OW 5393   0.430   4.532   1.246
 1717SOL    HW1 5394   0.494   4.545   1.315
 1717SOL    HW2 5395   0.392   4.446   1.265
 1718SOL     OW 5396   1.263   4.098   1.283
 1718SOL    HW1 5397   1.295   4.176   1.327
 1718SOL    HW2 5398   1.172   4.118   1.260
 1719SOL     OW 5399   0.067   5.289   1.327
 1719SOL    HW1 5400   0.023   5.370   1.352
 1719SOL    HW2 5401   0.159   5.306   1.344
 1720SOL     OW 5402   0.354   4.818   0.495
 1720SOL    HW1 5403   0.335   4.888   0.433
 1720SOL    HW2 5404   0.355   4.738   0.442
 1721SOL     OW 5405   0.546   4.250   0.855
 1721SOL    HW1 5406   0.560   4.312   0.783
 1721SOL    HW2 5407   0.611   4.275   0.920
 1722SOL     OW 5408   1.243   5.063   0.407
 1722SOL    HW1 5409   1.296   5.137   0.436
 1722SOL    HW2 5410   1.154   5.084   0.438
 1723SOL     OW 5411   1.292   5.186   1.149
 1723SOL    HW1 5412   1.347   5.191   1.227
 1723SOL    HW2 5413   1.237   5.109   1.163
 1724SOL     OW 5414   1.589   4.352   0.479
 1724SOL    HW1 5415   1.532   4.392   0.545
 1724SOL    HW2 5416   1.643   4.424   0.448
 1725SOL     OW 5417   0.348   5.259   1.308
 1725SOL    HW1 5418   0.334   5.211   1.227
 1725SOL    HW2 5419   0.443   5.269   1.315
 1726SOL     OW 5420   0.429   4.457   1.603
 1726SOL    HW1 5421   0.488   4.505   1.545
 1726SOL    HW2 5422   0.477   4.376   1.623
 1727SOL     OW 5423   1.611   4.505   1.688
 1727SOL    HW1 5424   1.525   4.547   1.682
 1727SOL    HW2 5425   1.663   4.547   1.619
 1728SOL     OW 5426   0.996   3.859   1.753
 1728SOL    HW1 5427   1.054   3.932   1.733
 1728SOL    HW2 5428   1.045   3.781   1.729
 1729SOL     OW 5429   0.501   3.758   1.751
 1729SOL    HW1 5430   0.451   3.710   1.684
 1729SOL    HW2 5431   0.448   3.835   1.770
 1730SOL     OW 5432   0.590   4.597   1.030
 1730SOL    HW1 5433   0.621   4.688   1.032
 1730SOL    HW2 5434   0.534   4.589   1.107
 1731SOL     OW 5435   1.344   4.582   1.020
 1731SOL    HW1 5436   1.258   4.566   0.980
 1731SOL    HW2 5437   1.391   4.500   1.009
 1732SOL     OW 5438   1.195   4.244   0.267
 1732SOL    HW1 5439   1.210   4.170   0.325
 1732SOL    HW2 5440   1.159   4.312   0.324
 1733SOL     OW 5441   0.311   3.917   1.245
 1733SOL    HW1 5442   0.269   3.947   1.326
 1733SOL    HW2 5443   0.291   3.824   1.241
 1734SOL     OW 5444   0.090   5.031   1.258
 1734SOL    HW1 5445   0.102   4.973   1.333
 1734SOL    HW2 5446   0.085   5.119   1.295
 1735SOL     OW 5447   0.715   4.349   1.048
 1735SOL    HW1 5448   0.795   4.338   0.996
 1735SOL    HW2 5449   0.689   4.439   1.033
 1736SOL     OW 5450   1.741   4.683   1.860
 1736SOL    HW1 5451   1.698   4.615   1.809
 1736SOL    HW2 5452   1.680   4.702   1.931
 1737SOL     OW 5453   0.313   3.797   0.627
 1737SOL    HW1 5454   0.291   3.887   0.652
 1737SOL    HW2 5455   0.321   3.750   0.711
 1738SOL     OW 5456   1.630   4.108   0.362
 1738SOL    HW1 5457   1.646   4.043   0.430
 1738SOL    HW2 5458   1.606   4.187   0.410
 1739SOL     OW 5459   1.028   4.481   0.957
 1739SOL    HW1 5460   1.018   4.498   1.051
 1739SOL    HW2 5461   1.002   4.390   0.947
 1740SOL     OW 5462   0.982   5.290   1.723
 1740SOL    HW1 5463   0.965   5.334   1.640
 1740SOL    HW2 5464   1.025   5.208   1.699
 1741SOL     OW 5465   1.849   5.224   1.604
 1741SOL    HW1 5466   1.872   5.252   1.515
 1741SOL    HW2 5467   1.929   5.237   1.655
 1742SOL     OW 5468   0.366   4.642   1.802
 1742SOL    HW1 5469   0.443   4.664   1.854
 1742SOL    HW2 5470   0.397   4.576   1.740
 1743SOL     OW 5471   1.477   4.024   0.145
 1743SOL    HW1 5472   1.450   3.933   0.160
 1743SOL    HW2 5473   1.532   4.045   0.221
 1744SOL     OW 5474   1.293   4.543   0.041
 1744SOL    HW1 5475   1.337   4.459   0.024
 1744SOL    HW2 5476   1.315   4.596   6.964
 1745SOL     OW 5477   1.069   5.064   0.858
 1745SOL    HW1 5478   1.076   4.992   0.795
 1745SOL    HW2 5479   1.126   5.132   0.822
 1746SOL     OW 5480   0.320   4.526   0.942
 1746SOL    HW1 5481   0.414   4.547   0.943
 1746SOL    HW2 5482   0.315   4.439   0.981
 1747SOL     OW 5483   0.329   4.247   1.016
 1747SOL    HW1 5484   0.292   4.160   1.002
 1747SOL    HW2 5485   0.404   4.251   0.957
 1748SOL     OW 5486   1.134   4.096   1.687
 1748SOL    HW1 5487   1.087   4.150   1.750
 1748SOL    HW2 5488   1.221   4.136   1.682
 1749SOL     OW 5489   1.160   3.921   1.472
 1749SOL    HW1 5490   1.148   3.983   1.544
 1749SOL    HW2 5491   1.203   3.971   1.403
 1750SOL     OW 5492   0.001   5.024   0.221
 1750SOL    HW1 5493   6.935   5.044   0.288
 1750SOL    HW2 5494   0.023   4.932   0.236
 1751SOL     OW 5495   0.096   5.473   0.956
 1751SOL    HW1 5496   0.080   5.403   0.892
 1751SOL    HW2 5497   0.176   5.516   0.925
 1752SOL     OW 5498   0.490   5.301   0.902
 1752SOL    HW1 5499   0.559   5.363   0.926
 1752SOL    HW2 5500   0.534   5.236   0.846
 1753SOL     OW 5501   0.970   4.509   1.222
 1753SOL    HW1 5502   1.032   4.492   1.293
 1753SOL    HW2 5503   0.887   4.472   1.254
 1754SOL     OW 5504   0.051   4.335   1.103
 1754SOL    HW1 5505   0.130   4.293   1.068
 1754SOL    HW2 5506   0.050   4.312   1.196
 1755SOL     OW 5507   0.212   4.233   1.718
 1755SOL    HW1 5508   0.287   4.192   1.674
 1755SOL    HW2 5509   0.199   4.316   1.671
 1756SOL     OW 5510   1.382   4.655   1.656
 1756SOL    HW1 5511   1.403   4.749   1.652
 1756SOL    HW2 5512   1.378   4.628   1.564
 1757SOL     OW 5513   0.819   4.290   0.380
 1757SOL    HW1 5514   0.826   4.219   0.315
 1757SOL    HW2 5515   0.748   4.345   0.346
 1758SOL     OW 5516   1.640   4.324   1.177
 1758SOL    HW1 5517   1.631   4.266   1.253
 1758SOL    HW2 5518   1.728   4.307   1.145
 1759SOL     OW 5519   0.280   5.284   1.733
 1759SOL    HW1 5520   0.228   5.344   1.786
 1759SOL    HW2 5521   0.264   5.198   1.771
 1760SOL     OW 5522   0.715   4.169   1.252
 1760SOL    HW1 5523   0.660   4.095   1.227
 1760SOL    HW2 5524   0.705   4.232   1.180
 1761SOL     OW 5525   0.921   5.402   1.472
 1761SOL    HW1 5526   0.897   5.362   1.389
 1761SOL    HW2 5527   0.914   5.496   1.456
 1762SOL     OW 5528   0.461   4.218   0.192
 1762SOL    HW1 5529   0.520   4.290   0.214
 1762SOL    HW2 5530   0.374   4.257   0.188
 1763SOL     OW 5531   0.162   4.851   1.466
 1763SOL    HW1 5532   0.153   4.789   1.538
 1763SOL    HW2 5533   0.175   4.797   1.388
 1764SOL     OW 5534   1.318   4.766   1.218
 1764SOL    HW1 5535   1.339   4.703   1.149
 1764SOL    HW2 5536   1.254   4.825   1.179
 1765SOL     OW 5537   1.301   4.570   0.313
 1765SOL    HW1 5538   1.224   4.532   0.356
 1765SOL    HW2 5539   1.290   4.549   0.221
 1766SOL     OW 5540   1.782   5.459   1.160
 1766SOL    HW1 5541   1.841   5.484   1.089
 1766SOL    HW2 5542   1.753   5.371   1.136
 1767SOL     OW 5543   1.239   5.457   1.103
 1767SOL    HW1 5544   1.322   5.482   1.063
 1767SOL    HW2 5545   1.250   5.364   1.125
 1768SOL     OW 5546   0.066   4.963   0.999
 1768SOL    HW1 5547   0.082   4.984   1.091
 1768SOL    HW2 5548   6.971   4.953   0.994
 1769SOL     OW 5549   0.681   5.397   1.741
 1769SOL    HW1 5550   0.619   5.470   1.733
 1769SOL    HW2 5551   0.749   5.416   1.677
 1770SOL     OW 5552   0.938   3.804   0.109
 1770SOL    HW1 5553   1.007   3.855   0.067
 1770SOL    HW2 5554   0.984   3.744   0.168
 1771SOL     OW 5555   1.705   3.884   0.516
 1771SOL    HW1 5556   1.781   3.874   0.458
 1771SOL    HW2 5557   1.694   3.798   0.556
 1772SOL     OW 5558   1.388   5.287   0.495
 1772SOL    HW1 5559   1.448   5.317   0.428
 1772SOL    HW2 5560   1.340   5.366   0.522
 1773SOL     OW 5561   0.141   5.511   1.854
 1773SOL    HW1 5562   0.100   5.442   1.907
 1773SOL    HW2 5563   0.188   5.564   1.917
 1774SOL     OW 5564   1.278   4.648   0.675
 1774SOL    HW1 5565   1.352   4.588   0.683
 1774SOL    HW2 5566   1.313   4.722   0.624
 1775SOL     OW 5567   0.801   5.002   1.422
 1775SOL    HW1 5568   0.775   5.044   1.504
 1775SOL    HW2 5569   0.730   5.020   1.361
 1776SOL     OW 5570   0.672   5.334   0.195
 1776SOL    HW1 5571   0.674   5.376   0.108
 1776SOL    HW2 5572   0.619   5.256   0.182
 1777SOL     OW 5573   1.618   5.452   1.392
 1777SOL    HW1 5574   1.673   5.456   1.314
 1777SOL    HW2 5575   1.604   5.544   1.416
 1778SOL     OW 5576   1.844   3.894   0.965
 1778SOL    HW1 5577   1.872   3.805   0.942
 1778SOL    HW2 5578   1.757   3.901   0.926
 1779SOL     OW 5579   0.262   4.046   0.721
 1779SOL    HW1 5580   0.191   4.108   0.704
 1779SOL    HW2 5581   0.256   4.029   0.815
 1780SOL     OW 5582   1.216   5.318   0.040
 1780SOL    HW1 5583   1.209   5.226   0.067
 1780SOL    HW2 5584   1.132   5.337   7.000
 1781SOL     OW 5585   0.824   4.732   1.376
 1781SOL    HW1 5586   0.865   4.726   1.290
 1781SOL    HW2 5587   0.819   4.826   1.393
 1782SOL     OW 5588   0.921   4.638   0.291
 1782SOL    HW1 5589   0.973   4.665   0.215
 1782SOL    HW2 5590   0.975   4.572   0.335
 1783SOL     OW 5591   1.477   5.397   0.051
 1783SOL    HW1 5592   1.386   5.366   0.044
 1783SOL    HW2 5593   1.509   5.397   6.961
 1784SOL     OW 5594   0.374   5.032   1.491
 1784SOL    HW1 5595   0.358   5.109   1.436
 1784SOL    HW2 5596   0.306   4.970   1.465
 1785SOL     OW 5597   1.606   5.009   1.279
 1785SOL    HW1 5598   1.665   4.991   1.352
 1785SOL    HW2 5599   1.546   5.076   1.312
 1786SOL     OW 5600   1.064   4.835   0.712
 1786SOL    HW1 5601   0.991   4.785   0.749
 1786SOL    HW2 5602   1.127   4.768   0.687
 1787SOL     OW 5603   1.025   3.966   0.966
 1787SOL    HW1 5604   1.022   3.920   0.882
 1787SOL    HW2 5605   1.020   3.897   1.032
 1788SOL     OW 5606   0.615   5.205   0.485
 1788SOL    HW1 5607   0.655   5.161   0.410
 1788SOL    HW2 5608   0.535   5.245   0.449
 1789SOL     OW 5609   1.729   4.115   1.381
 1789SOL    HW1 5610   1.801   4.178   1.381
 1789SOL    HW2 5611   1.758   4.045   1.322
 1790SOL     OW 5612   0.281   5.021   0.331
 1790SOL    HW1 5613   0.192   5.022   0.297
 1790SOL    HW2 5614   0.280   5.084   0.404
 1791SOL     OW 5615   0.122   4.696   1.700
 1791SOL    HW1 5616   0.074   4.745   1.766
 1791SOL    HW2 5617   0.208   4.681   1.739
 1792SOL     OW 5618   0.677   3.920   1.499
 1792SOL    HW1 5619   0.761   3.897   1.460
 1792SOL    HW2 5620   0.699   3.951   1.586
 1793SOL     OW 5621   0.064   4.116   0.016
 1793SOL    HW1 5622   6.978   4.111   6.975
 1793SOL    HW2 5623   0.124   4.137   6.945
 1794SOL     OW 5624   1.424   4.580   1.396
 1794SOL    HW1 5625   1.374   4.642   1.342
 1794SOL    HW2 5626   1.512   4.583   1.360
 1795SOL     OW 5627   0.032   3.919   0.364
 1795SOL    HW1 5628   0.074   4.003   0.345
 1795SOL    HW2 5629   0.104   3.859   0.379
 1796SOL     OW 5630   1.187   5.062   0.129
 1796SOL    HW1 5631   1.093   5.047   0.117
 1796SOL    HW2 5632   1.200   5.053   0.223
 1797SOL     OW 5633   0.622   4.556   1.436
 1797SOL    HW1 5634   0.678   4.632   1.422
 1797SOL    HW2 5635   0.683   4.482   1.442
 1798SOL     OW 5636   1.483   5.512   0.985
 1798SOL    HW1 5637   1.507   5.579   0.921
 1798SOL    HW2 5638   1.566   5.479   1.017
 1799SOL     OW 5639   0.714   4.283   1.699
 1799SOL    HW1 5640   0.761   4.341   1.759
 1799SOL    HW2 5641   0.732   4.195   1.732
 1800SOL     OW 5642   1.474   4.916   1.627
 1800SOL    HW1 5643   1.462   4.932   1.721
 1800SOL    HW2 5644   1.566   4.937   1.611
 1801SOL     OW 5645   0.368   5.476   1.562
 1801SOL    HW1 5646   0.281   5.514   1.547
 1801SOL    HW2 5647   0.350   5.395   1.609
 1802SOL     OW 5648   1.662   4.603   1.255
 1802SOL    HW1 5649   1.659   4.518   1.210
 1802SOL    HW2 5650   1.652   4.667   1.184
 1803SOL     OW 5651   1.218   4.040   0.459
 1803SOL    HW1 5652   1.280   3.968   0.455
 1803SOL    HW2 5653   1.245   4.092   0.535
 1804SOL     OW 5654   0.587   4.455   0.672
 1804SOL    HW1 5655   0.627   4.541   0.665
 1804SOL    HW2 5656   0.523   4.452   0.600
 1805SOL     OW 5657   1.755   4.087   1.654
 1805SOL    HW1 5658   1.742   4.104   1.561
 1805SOL    HW2 5659   1.681   4.031   1.678
 1806SOL     OW 5660   1.750   4.656   1.510
 1806SOL    HW1 5661   1.738   4.751   1.523
 1806SOL    HW2 5662   1.730   4.642   1.417
 1807SOL     OW 5663   0.907   5.104   0.057
 1807SOL    HW1 5664   0.846   5.085   0.128
 1807SOL    HW2 5665   0.904   5.199   0.047
 1808SOL     OW 5666   0.664   5.508   0.934
 1808SOL    HW1 5667   0.649   5.601   0.916
 1808SOL    HW2 5668   0.760   5.498   0.931
 1809SOL     OW 5669   0.870   4.696   0.854
 1809SOL    HW1 5670   0.920   4.623   0.891
 1809SOL    HW2 5671   0.830   4.739   0.929
 1810SOL     OW 5672   1.080   4.710   0.075
 1810SOL    HW1 5673   1.102   4.767   0.002
 1810SOL    HW2 5674   1.150   4.645   0.076
 1811SOL     OW 5675   1.846   5.278   0.839
 1811SOL    HW1 5676   1.766   5.264   0.789
 1811SOL    HW2 5677   1.843   5.210   0.906
 1812SOL     OW 5678   0.237   5.032   1.864
 1812SOL    HW1 5679   0.148   4.996   1.857
 1812SOL    HW2 5680   0.251   5.041   1.958
 1813SOL     OW 5681   0.148   5.009   0.702
 1813SOL    HW1 5682   0.116   4.967   0.782
 1813SOL    HW2 5683   0.153   4.938   0.638
 1814SOL     OW 5684   0.689   5.134   1.633
 1814SOL    HW1 5685   0.609   5.091   1.664
 1814SOL    HW2 5686   0.685   5.222   1.669
 1815SOL     OW 5687   1.810   3.904   1.235
 1815SOL    HW1 5688   1.816   3.809   1.248
 1815SOL    HW2 5689   1.823   3.917   1.141
 1816SOL     OW 5690   0.428   4.153   0.521
 1816SOL    HW1 5691   0.483   4.085   0.483
 1816SOL    HW2 5692   0.398   4.117   0.604
 1817SOL     OW 5693   1.694   5.211   1.092
 1817SOL    HW1 5694   1.617   5.191   1.040
 1817SOL    HW2 5695   1.698   5.140   1.157
 1818SOL     OW 5696   0.333   4.279   1.297
 1818SOL    HW1 5697   0.384   4.222   1.354
 1818SOL    HW2 5698   0.351   4.248   1.209
 1819SOL     OW 5699   0.831   5.302   0.678
 1819SOL    HW1 5700   0.809   5.366   0.610
 1819SOL    HW2 5701   0.757   5.242   0.679
 1820SOL     OW 5702   1.428   3.955   1.116
 1820SOL    HW1 5703   1.446   3.870   1.156
 1820SOL    HW2 5704   1.379   4.003   1.182
 1821SOL     OW 5705   1.009   3.740   1.133
 1821SOL    HW1 5706   0.954   3.674   1.090
 1821SOL    HW2 5707   1.096   3.701   1.136
 1822SOL     OW 5708   0.782   5.047   0.309
 1822SOL    HW1 5709   0.752   4.958   0.327
 1822SOL    HW2 5710   0.857   5.059   0.367
 1823SOL     OW 5711   0.622   5.281   1.287
 1823SOL    HW1 5712   0.621   5.363   1.336
 1823SOL    HW2 5713   0.710   5.275   1.251
 1824SOL     OW 5714   1.367   3.768   0.184
 1824SOL    HW1 5715   1.406   3.701   0.129
 1824SOL    HW2 5716   1.277   3.740   0.197
 1825SOL     OW 5717   1.294   4.188   0.677
 1825SOL    HW1 5718   1.244   4.269   0.681
 1825SOL    HW2 5719   1.290   4.152   0.766
 1826SOL     OW 5720   1.585   3.918   0.884
 1826SOL    HW1 5721   1.530   3.943   0.958
 1826SOL    HW2 5722   1.584   3.995   0.826
 1827SOL     OW 5723   0.071   4.776   0.312
 1827SOL    HW1 5724   0.155   4.735   0.295
 1827SOL    HW2 5725   0.008   4.704   0.312
 1828SOL     OW 5726   0.896   5.386   0.351
 1828SOL    HW1 5727   0.820   5.364   0.297
 1828SOL    HW2 5728   0.865   5.460   0.404
 1829SOL     OW 5729   0.172   4.377   1.980
 1829SOL    HW1 5730   0.173   4.316   2.054
 1829SOL    HW2 5731   0.218   4.330   1.910
 1830SOL     OW 5732   0.227   3.997   2.850
 1830SOL    HW1 5733   0.277   3.961   2.924
 1830SOL    HW2 5734   0.136   3.980   2.871
 1831SOL     OW 5735   6.985   4.108   2.513
 1831SOL    HW1 5736   6.939   4.105   2.597
 1831SOL    HW2 5737   0.014   4.018   2.498
 1832SOL     OW 5738   0.570   5.023   3.050
 1832SOL    HW1 5739   0.485   5.029   3.006
 1832SOL    HW2 5740   0.587   5.112   3.081
 1833SOL     OW 5741   1.575   5.239   2.571
 1833SOL    HW1 5742   1.531   5.215   2.652
 1833SOL    HW2 5743   1.505   5.242   2.506
 1834SOL     OW 5744   1.133   4.423   2.556
 1834SOL    HW1 5745   1.181   4.505   2.544
 1834SOL    HW2 5746   1.086   4.435   2.638
 1835SOL     OW 5747   1.782   4.320   2.086
 1835SOL    HW1 5748   1.753   4.316   1.995
 1835SOL    HW2 5749   1.740   4.245   2.128
 1836SOL     OW 5750   0.741   4.860   2.910
 1836SOL    HW1 5751   0.677   4.898   2.969
 1836SOL    HW2 5752   0.782   4.935   2.867
 1837SOL     OW 5753   0.876   4.483   3.686
 1837SOL    HW1 5754   0.868   4.553   3.751
 1837SOL    HW2 5755   0.898   4.528   3.604
 1838SOL     OW 5756   0.684   4.720   2.507
 1838SOL    HW1 5757   0.752   4.715   2.575
 1838SOL    HW2 5758   0.616   4.776   2.546
 1839SOL     OW 5759   0.715   4.872   3.684
 1839SOL    HW1 5760   0.764   4.949   3.715
 1839SOL    HW2 5761   0.637   4.909   3.643
 1840SOL     OW 5762   0.338   5.140   2.927
 1840SOL    HW1 5763   0.264   5.104   2.878
 1840SOL    HW2 5764   0.383   5.197   2.865
 1841SOL     OW 5765   1.458   5.227   3.225
 1841SOL    HW1 5766   1.513   5.305   3.234
 1841SOL    HW2 5767   1.389   5.238   3.290
 1842SOL     OW 5768   0.442   4.115   3.354
 1842SOL    HW1 5769   0.520   4.060   3.358
 1842SOL    HW2 5770   0.369   4.054   3.363
 1843SOL     OW 5771   1.606   4.165   2.609
 1843SOL    HW1 5772   1.534   4.184   2.548
 1843SOL    HW2 5773   1.604   4.238   2.672
 1844SOL     OW 5774   0.223   5.433   2.329
 1844SOL    HW1 5775   0.241   5.510   2.382
 1844SOL    HW2 5776   0.291   5.434   2.261
 1845SOL     OW 5777   1.138   5.067   3.557
 1845SOL    HW1 5778   1.179   5.059   3.643
 1845SOL    HW2 5779   1.086   4.987   3.548
 1846SOL     OW 5780   0.286   5.167   2.380
 1846SOL    HW1 5781   0.258   5.258   2.387
 1846SOL    HW2 5782   0.241   5.122   2.452
 1847SOL     OW 5783   0.272   4.807   2.764
 1847SOL    HW1 5784   0.268   4.716   2.793
 1847SOL    HW2 5785   0.200   4.850   2.810
 1848SOL     OW 5786   0.602   5.517   3.289
 1848SOL    HW1 5787   0.519   5.501   3.333
 1848SOL    HW2 5788   0.626   5.606   3.316
 1849SOL     OW 5789   0.576   4.710   2.003
 1849SOL    HW1 5790   0.627   4.754   1.935
 1849SOL    HW2 5791   0.615   4.741   2.085
 1850SOL     OW 5792   1.594   3.854   3.324
 1850SOL    HW1 5793   1.632   3.929   3.279
 1850SOL    HW2 5794   1.571   3.887   3.411
 1851SOL     OW 5795   0.136   4.335   2.436
 1851SOL    HW1 5796   0.067   4.272   2.459
 1851SOL    HW2 5797   0.120   4.409   2.494
 1852SOL     OW 5798   1.844   5.476   2.191
 1852SOL    HW1 5799   1.914   5.452   2.252
 1852SOL    HW2 5800   1.860   5.568   2.171
 1853SOL     OW 5801   0.036   5.317   2.010
 1853SOL    HW1 5802   0.027   5.223   2.024
 1853SOL    HW2 5803   6.952   5.354   2.039
 1854SOL     OW 5804   1.688   4.643   2.508
 1854SOL    HW1 5805   1.772   4.601   2.491
 1854SOL    HW2 5806   1.669   4.693   2.429
 1855SOL     OW 5807   1.651   4.826   2.291
 1855SOL    HW1 5808   1.738   4.826   2.251
 1855SOL    HW2 5809   1.659   4.890   2.363
 1856SOL     OW 5810   0.151   4.455   3.436
 1856SOL    HW1 5811   0.245   4.466   3.424
 1856SOL    HW2 5812   0.120   4.540   3.468
 1857SOL     OW 5813   0.616   5.116   2.599
 1857SOL    HW1 5814   0.571   5.032   2.607
 1857SOL    HW2 5815   0.600   5.142   2.508
 1858SOL     OW 5816   1.284   4.959   3.282
 1858SOL    HW1 5817   1.313   4.890   3.222
 1858SOL    HW2 5818   1.344   4.953   3.356
 1859SOL     OW 5819   0.821   3.729   2.376
 1859SOL    HW1 5820   0.861   3.813   2.352
 1859SOL    HW2 5821   0.728   3.748   2.381
 1860SOL     OW 5822   0.203   4.684   3.123
 1860SOL    HW1 5823   0.283   4.635   3.106
 1860SOL    HW2 5824   0.141   4.651   3.057
 1861SOL     OW 5825   1.531   4.725   2.062
 1861SOL    HW1 5826   1.462   4.668   2.095
 1861SOL    HW2 5827   1.575   4.758   2.141
 1862SOL     OW 5828   1.183   5.539   3.489
 1862SOL    HW1 5829   1.188   5.600   3.416
 1862SOL    HW2 5830   1.201   5.454   3.450
 1863SOL     OW 5831   0.361   3.974   3.701
 1863SOL    HW1 5832   0.399   4.056   3.733
 1863SOL    HW2 5833   0.267   3.984   3.717
 1864SOL     OW 5834   1.467   5.144   2.806
 1864SOL    HW1 5835   1.401   5.160   2.874
 1864SOL    HW2 5836   1.454   5.052   2.781
 1865SOL     OW 5837   1.651   5.483   2.438
 1865SOL    HW1 5838   1.633   5.447   2.351
 1865SOL    HW2 5839   1.636   5.409   2.497
 1866SOL     OW 5840   0.587   4.434   2.125
 1866SOL    HW1 5841   0.597   4.521   2.086
 1866SOL    HW2 5842   0.528   4.448   2.200
 1867SOL     OW 5843   1.279   4.092   2.796
 1867SOL    HW1 5844   1.190   4.057   2.805
 1867SOL    HW2 5845   1.332   4.037   2.854
 1868SOL     OW 5846   1.578   5.398   2.173
 1868SOL    HW1 5847   1.670   5.422   2.165
 1868SOL    HW2 5848   1.549   5.381   2.084
 1869SOL     OW 5849   0.789   4.342   3.308
 1869SOL    HW1 5850   0.764   4.315   3.397
 1869SOL    HW2 5851   0.758   4.272   3.251
 1870SOL     OW 5852   1.390   4.198   3.539
 1870SOL    HW1 5853   1.396   4.242   3.624
 1870SOL    HW2 5854   1.448   4.122   3.547
 1871SOL     OW 5855   0.948   4.608   3.449
 1871SOL    HW1 5856   1.004   4.541   3.409
 1871SOL    HW2 5857   0.900   4.646   3.375
 1872SOL     OW 5858   0.994   4.133   3.093
 1872SOL    HW1 5859   0.904   4.149   3.121
 1872SOL    HW2 5860   0.986   4.091   3.008
 1873SOL     OW 5861   1.054   4.422   2.285
 1873SOL    HW1 5862   1.073   4.416   2.379
 1873SOL    HW2 5863   0.970   4.377   2.275
 1874SOL     OW 5864   0.097   4.538   2.639
 1874SOL    HW1 5865   0.187   4.535   2.671
 1874SOL    HW2 5866   0.045   4.561   2.716
 1875SOL     OW 5867   0.109   5.592   3.455
 1875SOL    HW1 5868   0.125   5.569   3.547
 1875SOL    HW2 5869   0.018   5.569   3.440
 1876SOL     OW 5870   0.899   4.075   2.058
 1876SOL    HW1 5871   0.940   4.138   1.999
 1876SOL    HW2 5872   0.905   3.991   2.012
 1877SOL     OW 5873   1.701   4.300   3.701
 1877SOL    HW1 5874   1.670   4.374   3.648
 1877SOL    HW2 5875   1.727   4.234   3.636
 1878SOL     OW 5876   1.382   4.866   2.401
 1878SOL    HW1 5877   1.462   4.855   2.349
 1878SOL    HW2 5878   1.329   4.928   2.351
 1879SOL     OW 5879   0.555   3.901   2.760
 1879SOL    HW1 5880   0.560   3.930   2.851
 1879SOL    HW2 5881   0.557   3.982   2.708
 1880SOL     OW 5882   0.998   5.168   2.329
 1880SOL    HW1 5883   0.969   5.244   2.279
 1880SOL    HW2 5884   0.973   5.189   2.419
 1881SOL     OW 5885   0.354   5.544   2.729
 1881SOL    HW1 5886   0.394   5.458   2.740
 1881SOL    HW2 5887   0.423   5.607   2.751
 1882SOL     OW 5888   1.798   4.776   2.737
 1882SOL    HW1 5889   1.745   4.760   2.658
 1882SOL    HW2 5890   1.734   4.782   2.808
 1883SOL     OW 5891   1.226   5.265   3.376
 1883SOL    HW1 5892   1.214   5.193   3.437
 1883SOL    HW2 5893   1.158   5.252   3.310
 1884SOL     OW 5894   0.313   4.670   2.115
 1884SOL    HW1 5895   0.395   4.691   2.071
 1884SOL    HW2 5896   0.287   4.585   2.078
 1885SOL     OW 5897   1.482   4.474   2.582
 1885SOL    HW1 5898   1.481   4.435   2.670
 1885SOL    HW2 5899   1.559   4.530   2.582
 1886SOL     OW 5900   0.474   4.991   3.598
 1886SOL    HW1 5901   0.448   4.998   3.506
 1886SOL    HW2 5902   0.392   4.989   3.646
 1887SOL     OW 5903   1.126   5.502   2.090
 1887SOL    HW1 5904   1.049   5.464   2.133
 1887SOL    HW2 5905   1.150   5.438   2.023
 1888SOL     OW 5906   0.195   3.981   3.350
 1888SOL    HW1 5907   0.114   4.032   3.344
 1888SOL    HW2 5908   0.169   3.900   3.394
 1889SOL     OW 5909   1.628   5.107   1.954
 1889SOL    HW1 5910   1.587   5.192   1.939
 1889SOL    HW2 5911   1.561   5.043   1.932
 1890SOL     OW 5912   0.465   5.461   2.178
 1890SOL    HW1 5913   0.510   5.513   2.244
 1890SOL    HW2 5914   0.535   5.425   2.124
 1891SOL     OW 5915   1.399   3.831   2.305
 1891SOL    HW1 5916   1.392   3.805   2.213
 1891SOL    HW2 5917   1.493   3.836   2.320
 1892SOL     OW 5918   0.256   5.517   3.085
 1892SOL    HW1 5919   0.303   5.442   3.122
 1892SOL    HW2 5920   0.212   5.482   3.008
 1893SOL     OW 5921   0.940   5.425   2.757
 1893SOL    HW1 5922   1.020   5.376   2.779
 1893SOL    HW2 5923   0.900   5.373   2.686
 1894SOL     OW 5924   0.402   4.411   2.334
 1894SOL    HW1 5925   0.426   4.320   2.354
 1894SOL    HW2 5926   0.309   4.417   2.355
 1895SOL     OW 5927   1.524   3.950   3.584
 1895SOL    HW1 5928   1.535   3.970   3.677
 1895SOL    HW2 5929   1.457   3.881   3.582
 1896SOL     OW 5930   0.650   3.839   1.964
 1896SOL    HW1 5931   0.707   3.764   1.982
 1896SOL    HW2 5932   0.594   3.809   1.892
 1897SOL     OW 5933   0.762   4.003   3.618
 1897SOL    HW1 5934   0.844   3.953   3.614
 1897SOL    HW2 5935   0.716   3.968   3.694
 1898SOL     OW 5936   0.876   5.248   3.057
 1898SOL    HW1 5937   0.858   5.209   2.971
 1898SOL    HW2 5938   0.945   5.193   3.094
 1899SOL     OW 5939   1.336   4.314   3.295
 1899SOL    HW1 5940   1.368   4.282   3.379
 1899SOL    HW2 5941   1.376   4.401   3.285
 1900SOL     OW 5942   0.819   5.111   2.811
 1900SOL    HW1 5943   0.904   5.101   2.768
 1900SOL    HW2 5944   0.757   5.120   2.739
 1901SOL     OW 5945   0.930   4.233   2.761
 1901SOL    HW1 5946   0.904   4.224   2.669
 1901SOL    HW2 5947   0.960   4.146   2.786
 1902SOL     OW 5948   0.553   3.786   2.359
 1902SOL    HW1 5949   0.472   3.785   2.410
 1902SOL    HW2 5950   0.544   3.862   2.301
 1903SOL     OW 5951   1.428   4.926   1.900
 1903SOL    HW1 5952   1.457   4.851   1.952
 1903SOL    HW2 5953   1.343   4.949   1.937
 1904SOL     OW 5954   0.286   3.771   2.057
 1904SOL    HW1 5955   0.339   3.842   2.020
 1904SOL    HW2 5956   0.349   3.708   2.091
 1905SOL     OW 5957   0.943   3.974   2.317
 1905SOL    HW1 5958   0.919   4.012   2.232
 1905SOL    HW2 5959   1.037   3.989   2.324
 1906SOL     OW 5960   1.080   4.410   3.318
 1906SOL    HW1 5961   1.018   4.338   3.321
 1906SOL    HW2 5962   1.166   4.367   3.312
 1907SOL     OW 5963   1.217   5.298   2.658
 1907SOL    HW1 5964   1.231   5.362   2.588
 1907SOL    HW2 5965   1.288   5.313   2.720
 1908SOL     OW 5966   0.472   4.878   2.592
 1908SOL    HW1 5967   0.408   4.856   2.660
 1908SOL    HW2 5968   0.425   4.864   2.509
 1909SOL     OW 5969   1.262   5.515   2.475
 1909SOL    HW1 5970   1.311   5.578   2.421
 1909SOL    HW2 5971   1.193   5.568   2.516
 1910SOL     OW 5972   1.025   4.256   1.889
 1910SOL    HW1 5973   0.981   4.339   1.870
 1910SOL    HW2 5974   1.089   4.278   1.956
 1911SOL     OW 5975   0.070   4.277   3.235
 1911SOL    HW1 5976   0.163   4.270   3.213
 1911SOL    HW2 5977   0.067   4.343   3.304
 1912SOL     OW 5978   0.567   3.950   3.032
 1912SOL    HW1 5979   0.610   3.878   3.077
 1912SOL    HW2 5980   0.476   3.946   3.061
 1913SOL     OW 5981   0.865   4.180   2.500
 1913SOL    HW1 5982   0.821   4.237   2.437
 1913SOL    HW2 5983   0.889   4.102   2.450
 1914SOL     OW 5984   1.019   3.779   2.608
 1914SOL    HW1 5985   0.959   3.774   2.533
 1914SOL    HW2 5986   0.995   3.705   2.663
 1915SOL     OW 5987   1.439   4.884   2.718
 1915SOL    HW1 5988   1.369   4.819   2.720
 1915SOL    HW2 5989   1.463   4.891   2.626
 1916SOL     OW 5990   1.467   4.334   2.827
 1916SOL    HW1 5991   1.408   4.259   2.832
 1916SOL    HW2 5992   1.523   4.326   2.905
 1917SOL     OW 5993   1.840   4.533   2.247
 1917SOL    HW1 5994   1.899   4.485   2.306
 1917SOL    HW2 5995   1.817   4.469   2.179
 1918SOL     OW 5996   0.500   5.148   2.010
 1918SOL    HW1 5997   0.421   5.122   2.057
 1918SOL    HW2 5998   0.491   5.107   1.924
 1919SOL     OW 5999   1.681   4.988   2.503
 1919SOL    HW1 6000   1.775   4.986   2.519
 1919SOL    HW2 6001   1.654   5.077   2.525
 1920SOL     OW 6002   1.393   4.297   1.932
 1920SOL    HW1 6003   1.332   4.275   2.003
 1920SOL    HW2 6004   1.478   4.269   1.965
 1921SOL     OW 6005   0.529   3.982   2.171
 1921SOL    HW1 6006   0.580   3.935   2.104
 1921SOL    HW2 6007   0.501   4.062   2.128
 1922SOL     OW 6008   1.751   4.964   3.410
 1922SOL    HW1 6009   1.838   4.927   3.396
 1922SOL    HW2 6010   1.767   5.052   3.444
 1923SOL     OW 6011   1.053   5.077   3.193
 1923SOL    HW1 6012   0.977   5.046   3.242
 1923SOL    HW2 6013   1.128   5.035   3.235
 1924SOL     OW 6014   1.610   5.352   3.522
 1924SOL    HW1 6015   1.602   5.387   3.433
 1924SOL    HW2 6016   1.691   5.300   3.520
 1925SOL     OW 6017   1.137   4.938   2.963
 1925SOL    HW1 6018   1.076   4.975   3.027
 1925SOL    HW2 6019   1.108   4.972   2.879
 1926SOL     OW 6020   1.620   4.819   2.938
 1926SOL    HW1 6021   1.613   4.882   3.010
 1926SOL    HW2 6022   1.545   4.839   2.882
 1927SOL     OW 6023   0.918   3.816   3.252
 1927SOL    HW1 6024   0.941   3.798   3.161
 1927SOL    HW2 6025   0.997   3.855   3.289
 1928SOL     OW 6026   0.985   4.839   3.585
 1928SOL    HW1 6027   0.894   4.855   3.610
 1928SOL    HW2 6028   0.981   4.760   3.531
 1929SOL     OW 6029   0.709   4.786   2.235
 1929SOL    HW1 6030   0.695   4.766   2.327
 1929SOL    HW2 6031   0.784   4.733   2.209
 1930SOL     OW 6032   0.430   4.532   3.108
 1930SOL    HW1 6033   0.495   4.545   3.177
 1930SOL    HW2 6034   0.392   4.446   3.127
 1931SOL     OW 6035   1.262   4.098   3.144
 1931SOL    HW1 6036   1.295   4.176   3.189
 1931SOL    HW2 6037   1.171   4.119   3.123
 1932SOL     OW 6038   0.067   5.289   3.189
 1932SOL    HW1 6039   0.024   5.371   3.212
 1932SOL    HW2 6040   0.160   5.305   3.205
 1933SOL     OW 6041   0.335   4.839   2.354
 1933SOL    HW1 6042   0.346   4.911   2.292
 1933SOL    HW2 6043   0.333   4.761   2.299
 1934SOL     OW 6044   0.544   4.252   2.722
 1934SOL    HW1 6045   0.559   4.311   2.648
 1934SOL    HW2 6046   0.612   4.278   2.786
 1935SOL     OW 6047   1.247   5.074   2.253
 1935SOL    HW1 6048   1.303   5.145   2.286
 1935SOL    HW2 6049   1.159   5.096   2.286
 1936SOL     OW 6050   1.292   5.186   3.010
 1936SOL    HW1 6051   1.347   5.191   3.089
 1936SOL    HW2 6052   1.237   5.108   3.025
 1937SOL     OW 6053   1.577   4.343   2.347
 1937SOL    HW1 6054   1.527   4.388   2.415
 1937SOL    HW2 6055   1.621   4.414   2.300
 1938SOL     OW 6056   0.348   5.259   3.170
 1938SOL    HW1 6057   0.334   5.211   3.088
 1938SOL    HW2 6058   0.443   5.269   3.177
 1939SOL     OW 6059   0.429   4.457   3.465
 1939SOL    HW1 6060   0.488   4.505   3.407
 1939SOL    HW2 6061   0.477   4.376   3.485
 1940SOL     OW 6062   1.613   4.509   3.554
 1940SOL    HW1 6063   1.526   4.549   3.547
 1940SOL    HW2 6064   1.664   4.552   3.485
 1941SOL     OW 6065   0.996   3.860   3.616
 1941SOL    HW1 6066   1.054   3.932   3.595
 1941SOL    HW2 6067   1.045   3.781   3.590
 1942SOL     OW 6068   0.501   3.757   3.613
 1942SOL    HW1 6069   0.451   3.709   3.546
 1942SOL    HW2 6070   0.447   3.835   3.632
 1943SOL     OW 6071   0.591   4.598   2.893
 1943SOL    HW1 6072   0.622   4.688   2.896
 1943SOL    HW2 6073   0.534   4.589   2.969
 1944SOL     OW 6074   1.344   4.582   2.880
 1944SOL    HW1 6075   1.257   4.563   2.844
 1944SOL    HW2 6076   1.392   4.500   2.871
 1945SOL     OW 6077   1.198   4.250   2.123
 1945SOL    HW1 6078   1.207   4.172   2.178
 1945SOL    HW2 6079   1.156   4.315   2.180
 1946SOL     OW 6080   0.310   3.918   3.106
 1946SOL    HW1 6081   0.269   3.947   3.188
 1946SOL    HW2 6082   0.291   3.824   3.102
 1947SOL     OW 6083   0.089   5.031   3.120
 1947SOL    HW1 6084   0.102   4.973   3.196
 1947SOL    HW2 6085   0.084   5.119   3.158
 1948SOL     OW 6086   0.719   4.351   2.912
 1948SOL    HW1 6087   0.797   4.339   2.858
 1948SOL    HW2 6088   0.692   4.441   2.895
 1949SOL     OW 6089   1.730   4.693   3.734
 1949SOL    HW1 6090   1.698   4.626   3.674
 1949SOL    HW2 6091   1.661   4.702   3.799
 1950SOL     OW 6092   0.305   3.785   2.482
 1950SOL    HW1 6093   0.284   3.876   2.504
 1950SOL    HW2 6094   0.314   3.742   2.567
 1951SOL     OW 6095   1.624   4.105   2.220
 1951SOL    HW1 6096   1.652   4.040   2.284
 1951SOL    HW2 6097   1.599   4.181   2.273
 1952SOL     OW 6098   1.029   4.482   2.819
 1952SOL    HW1 6099   1.019   4.499   2.913
 1952SOL    HW2 6100   1.003   4.391   2.808
 1953SOL     OW 6101   0.982   5.290   3.585
 1953SOL    HW1 6102   0.965   5.334   3.501
 1953SOL    HW2 6103   1.025   5.208   3.561
 1954SOL     OW 6104   1.851   5.221   3.465
 1954SOL    HW1 6105   1.872   5.251   3.377
 1954SOL    HW2 6106   1.930   5.237   3.515
 1955SOL     OW 6107   0.366   4.642   3.664
 1955SOL    HW1 6108   0.443   4.664   3.716
 1955SOL    HW2 6109   0.397   4.576   3.602
 1956SOL     OW 6110   1.525   3.995   1.987
 1956SOL    HW1 6111   1.463   3.929   2.017
 1956SOL    HW2 6112   1.561   4.033   2.067
 1957SOL     OW 6113   1.285   4.548   1.889
 1957SOL    HW1 6114   1.328   4.462   1.894
 1957SOL    HW2 6115   1.318   4.586   1.808
 1958SOL     OW 6116   1.070   5.064   2.720
 1958SOL    HW1 6117   1.076   4.992   2.657
 1958SOL    HW2 6118   1.127   5.133   2.684
 1959SOL     OW 6119   0.320   4.528   2.803
 1959SOL    HW1 6120   0.414   4.547   2.803
 1959SOL    HW2 6121   0.314   4.440   2.841
 1960SOL     OW 6122   0.325   4.248   2.878
 1960SOL    HW1 6123   0.289   4.160   2.862
 1960SOL    HW2 6124   0.402   4.252   2.821
 1961SOL     OW 6125   1.134   4.095   3.549
 1961SOL    HW1 6126   1.086   4.150   3.612
 1961SOL    HW2 6127   1.221   4.135   3.543
 1962SOL     OW 6128   1.160   3.920   3.335
 1962SOL    HW1 6129   1.149   3.983   3.406
 1962SOL    HW2 6130   1.204   3.970   3.265
 1963SOL     OW 6131   6.994   5.049   2.083
 1963SOL    HW1 6132   6.924   5.070   2.144
 1963SOL    HW2 6133   0.018   4.958   2.103
 1964SOL     OW 6134   0.096   5.472   2.818
 1964SOL    HW1 6135   0.081   5.402   2.755
 1964SOL    HW2 6136   0.175   5.516   2.786
 1965SOL     OW 6137   0.490   5.302   2.765
 1965SOL    HW1 6138   0.559   5.364   2.789
 1965SOL    HW2 6139   0.534   5.238   2.708
 1966SOL     OW 6140   0.970   4.510   3.084
 1966SOL    HW1 6141   1.031   4.493   3.156
 1966SOL    HW2 6142   0.887   4.471   3.113
 1967SOL     OW 6143   0.051   4.335   2.965
 1967SOL    HW1 6144   0.131   4.294   2.930
 1967SOL    HW2 6145   0.051   4.312   3.057
 1968SOL     OW 6146   0.212   4.233   3.579
 1968SOL    HW1 6147   0.287   4.192   3.535
 1968SOL    HW2 6148   0.199   4.316   3.533
 1969SOL     OW 6149   1.381   4.656   3.518
 1969SOL    HW1 6150   1.403   4.749   3.514
 1969SOL    HW2 6151   1.378   4.627   3.427
 1970SOL     OW 6152   0.816   4.293   2.228
 1970SOL    HW1 6153   0.825   4.219   2.169
 1970SOL    HW2 6154   0.741   4.342   2.194
 1971SOL     OW 6155   1.637   4.322   3.042
 1971SOL    HW1 6156   1.632   4.267   3.119
 1971SOL    HW2 6157   1.725   4.308   3.007
 1972SOL     OW 6158   0.280   5.284   3.595
 1972SOL    HW1 6159   0.228   5.344   3.648
 1972SOL    HW2 6160   0.264   5.198   3.633
 1973SOL     OW 6161   0.715   4.170   3.114
 1973SOL    HW1 6162   0.660   4.096   3.088
 1973SOL    HW2 6163   0.706   4.233   3.042
 1974SOL     OW 6164   0.921   5.402   3.334
 1974SOL    HW1 6165   0.897   5.361   3.251
 1974SOL    HW2 6166   0.914   5.496   3.318
 1975SOL     OW 6167   0.447   4.206   2.040
 1975SOL    HW1 6168   0.499   4.284   2.058
 1975SOL    HW2 6169   0.369   4.215   2.095
 1976SOL     OW 6170   0.162   4.851   3.327
 1976SOL    HW1 6171   0.153   4.789   3.399
 1976SOL    HW2 6172   0.175   4.796   3.250
 1977SOL     OW 6173   1.318   4.766   3.080
 1977SOL    HW1 6174   1.339   4.703   3.011
 1977SOL    HW2 6175   1.254   4.825   3.040
 1978SOL     OW 6176   1.318   4.581   2.164
 1978SOL    HW1 6177   1.244   4.549   2.217
 1978SOL    HW2 6178   1.290   4.567   2.073
 1979SOL     OW 6179   1.782   5.459   3.022
 1979SOL    HW1 6180   1.841   5.485   2.951
 1979SOL    HW2 6181   1.752   5.371   2.998
 1980SOL     OW 6182   1.239   5.457   2.965
 1980SOL    HW1 6183   1.322   5.482   2.925
 1980SOL    HW2 6184   1.250   5.364   2.987
 1981SOL     OW 6185   0.066   4.962   2.862
 1981SOL    HW1 6186   0.083   4.983   2.954
 1981SOL    HW2 6187   6.971   4.954   2.856
 1982SOL     OW 6188   0.681   5.397   3.603
 1982SOL    HW1 6189   0.619   5.470   3.595
 1982SOL    HW2 6190   0.749   5.416   3.538
 1983SOL     OW 6191   1.725   3.883   2.366
 1983SOL    HW1 6192   1.794   3.866   2.302
 1983SOL    HW2 6193   1.708   3.797   2.405
 1984SOL     OW 6194   1.394   5.292   2.355
 1984SOL    HW1 6195   1.451   5.326   2.286
 1984SOL    HW2 6196   1.343   5.367   2.383
 1985SOL     OW 6197   0.141   5.511   3.716
 1985SOL    HW1 6198   0.100   5.442   3.769
 1985SOL    HW2 6199   0.188   5.564   3.779
 1986SOL     OW 6200   1.278   4.653   2.532
 1986SOL    HW1 6201   1.352   4.593   2.543
 1986SOL    HW2 6202   1.313   4.724   2.479
 1987SOL     OW 6203   0.802   5.002   3.284
 1987SOL    HW1 6204   0.775   5.044   3.366
 1987SOL    HW2 6205   0.730   5.020   3.223
 1988SOL     OW 6206   0.673   5.355   2.018
 1988SOL    HW1 6207   0.685   5.369   1.924
 1988SOL    HW2 6208   0.619   5.276   2.023
 1989SOL     OW 6209   1.619   5.452   3.255
 1989SOL    HW1 6210   1.673   5.456   3.176
 1989SOL    HW2 6211   1.604   5.543   3.279
 1990SOL     OW 6212   1.853   3.899   2.819
 1990SOL    HW1 6213   1.877   3.808   2.802
 1990SOL    HW2 6214   1.764   3.907   2.785
 1991SOL     OW 6215   0.264   4.038   2.576
 1991SOL    HW1 6216   0.198   4.107   2.562
 1991SOL    HW2 6217   0.261   4.022   2.671
 1992SOL     OW 6218   1.208   5.324   1.896
 1992SOL    HW1 6219   1.197   5.232   1.922
 1992SOL    HW2 6220   1.142   5.337   1.829
 1993SOL     OW 6221   0.824   4.732   3.238
 1993SOL    HW1 6222   0.866   4.725   3.153
 1993SOL    HW2 6223   0.819   4.826   3.255
 1994SOL     OW 6224   0.915   4.633   2.154
 1994SOL    HW1 6225   0.974   4.667   2.086
 1994SOL    HW2 6226   0.966   4.567   2.200
 1995SOL     OW 6227   1.488   5.355   1.908
 1995SOL    HW1 6228   1.394   5.343   1.893
 1995SOL    HW2 6229   1.526   5.360   1.821
 1996SOL     OW 6230   0.373   5.033   3.353
 1996SOL    HW1 6231   0.358   5.109   3.298
 1996SOL    HW2 6232   0.306   4.970   3.327
 1997SOL     OW 6233   1.606   5.009   3.142
 1997SOL    HW1 6234   1.663   4.990   3.216
 1997SOL    HW2 6235   1.546   5.076   3.174
 1998SOL     OW 6236   1.064   4.835   2.574
 1998SOL    HW1 6237   0.991   4.785   2.611
 1998SOL    HW2 6238   1.128   4.769   2.549
 1999SOL     OW 6239   1.025   3.967   2.828
 1999SOL    HW1 6240   1.022   3.921   2.744
 1999SOL    HW2 6241   1.020   3.898   2.894
 2000SOL     OW 6242   0.610   5.213   2.344
 2000SOL    HW1 6243   0.658   5.164   2.277
 2000SOL    HW2 6244   0.528   5.238   2.301
 2001SOL     OW 6245   1.734   4.109   3.250
 2001SOL    HW1 6246   1.802   4.177   3.246
 2001SOL    HW2 6247   1.765   4.041   3.190
 2002SOL     OW 6248   0.263   5.073   2.134
 2002SOL    HW1 6249   0.168   5.079   2.124
 2002SOL    HW2 6250   0.280   5.109   2.221
 2003SOL     OW 6251   0.122   4.695   3.562
 2003SOL    HW1 6252   0.074   4.745   3.628
 2003SOL    HW2 6253   0.208   4.681   3.601
 2004SOL     OW 6254   0.677   3.919   3.361
 2004SOL    HW1 6255   0.761   3.896   3.321
 2004SOL    HW2 6256   0.699   3.951   3.448
 2005SOL     OW 6257   0.103   4.033   1.897
 2005SOL    HW1 6258   0.012   4.010   1.911
 2005SOL    HW2 6259   0.100   4.117   1.852
 2006SOL     OW 6260   1.423   4.581   3.258
 2006SOL    HW1 6261   1.374   4.642   3.203
 2006SOL    HW2 6262   1.512   4.583   3.223
 2007SOL     OW 6263   0.068   3.916   2.201
 2007SOL    HW1 6264   0.013   3.891   2.127
 2007SOL    HW2 6265   0.148   3.864   2.191
 2008SOL     OW 6266   1.178   5.057   1.980
 2008SOL    HW1 6267   1.086   5.029   1.981
 2008SOL    HW2 6268   1.203   5.058   2.072
 2009SOL     OW 6269   0.622   4.556   3.298
 2009SOL    HW1 6270   0.678   4.632   3.284
 2009SOL    HW2 6271   0.683   4.482   3.304
 2010SOL     OW 6272   1.483   5.512   2.847
 2010SOL    HW1 6273   1.506   5.579   2.783
 2010SOL    HW2 6274   1.567   5.480   2.879
 2011SOL     OW 6275   0.713   4.283   3.562
 2011SOL    HW1 6276   0.761   4.341   3.621
 2011SOL    HW2 6277   0.732   4.195   3.594
 2012SOL     OW 6278   1.474   4.917   3.489
 2012SOL    HW1 6279   1.463   4.932   3.583
 2012SOL    HW2 6280   1.566   4.935   3.473
 2013SOL     OW 6281   0.368   5.476   3.424
 2013SOL    HW1 6282   0.281   5.514   3.409
 2013SOL    HW2 6283   0.350   5.395   3.471
 2014SOL     OW 6284   1.662   4.602   3.116
 2014SOL    HW1 6285   1.661   4.516   3.074
 2014SOL    HW2 6286   1.652   4.664   3.044
 2015SOL     OW 6287   1.216   4.043   2.319
 2015SOL    HW1 6288   1.277   3.970   2.313
 2015SOL    HW2 6289   1.244   4.094   2.395
 2016SOL     OW 6290   0.587   4.457   2.538
 2016SOL    HW1 6291   0.627   4.543   2.527
 2016SOL    HW2 6292   0.525   4.450   2.466
 2017SOL     OW 6293   1.759   4.091   3.531
 2017SOL    HW1 6294   1.764   4.101   3.436
 2017SOL    HW2 6295   1.683   4.035   3.546
 2018SOL     OW 6296   1.739   4.664   3.372
 2018SOL    HW1 6297   1.730   4.758   3.380
 2018SOL    HW2 6298   1.725   4.646   3.279
 2019SOL     OW 6299   0.867   5.088   1.909
 2019SOL    HW1 6300   0.827   5.114   1.991
 2019SOL    HW2 6301   0.879   5.169   1.860
 2020SOL     OW 6302   0.665   5.507   2.798
 2020SOL    HW1 6303   0.648   5.599   2.779
 2020SOL    HW2 6304   0.760   5.499   2.792
 2021SOL     OW 6305   0.870   4.696   2.715
 2021SOL    HW1 6306   0.919   4.623   2.752
 2021SOL    HW2 6307   0.829   4.739   2.791
 2022SOL     OW 6308   1.074   4.710   1.950
 2022SOL    HW1 6309   1.055   4.764   1.873
 2022SOL    HW2 6310   1.149   4.656   1.924
 2023SOL     OW 6311   1.846   5.276   2.703
 2023SOL    HW1 6312   1.765   5.264   2.653
 2023SOL    HW2 6313   1.844   5.208   2.770
 2024SOL     OW 6314   0.237   5.031   3.726
 2024SOL    HW1 6315   0.148   4.995   3.719
 2024SOL    HW2 6316   0.251   5.041   3.820
 2025SOL     OW 6317   0.152   5.007   2.562
 2025SOL    HW1 6318   0.118   4.963   2.640
 2025SOL    HW2 6319   0.179   4.936   2.504
 2026SOL     OW 6320   0.689   5.134   3.495
 2026SOL    HW1 6321   0.609   5.091   3.526
 2026SOL    HW2 6322   0.685   5.222   3.531
 2027SOL     OW 6323   1.797   3.900   3.090
 2027SOL    HW1 6324   1.812   3.806   3.101
 2027SOL    HW2 6325   1.819   3.918   2.999
 2028SOL     OW 6326   0.451   4.155   2.396
 2028SOL    HW1 6327   0.479   4.084   2.337
 2028SOL    HW2 6328   0.402   4.110   2.465
 2029SOL     OW 6329   1.693   5.211   2.955
 2029SOL    HW1 6330   1.616   5.191   2.902
 2029SOL    HW2 6331   1.698   5.140   3.019
 2030SOL     OW 6332   0.333   4.279   3.159
 2030SOL    HW1 6333   0.385   4.222   3.216
 2030SOL    HW2 6334   0.350   4.248   3.070
 2031SOL     OW 6335   0.833   5.303   2.536
 2031SOL    HW1 6336   0.809   5.369   2.470
 2031SOL    HW2 6337   0.758   5.244   2.538
 2032SOL     OW 6338   1.429   3.955   2.979
 2032SOL    HW1 6339   1.462   3.879   3.028
 2032SOL    HW2 6340   1.378   4.004   3.043
 2033SOL     OW 6341   1.008   3.740   2.995
 2033SOL    HW1 6342   0.954   3.675   2.952
 2033SOL    HW2 6343   1.096   3.701   2.997
 2034SOL     OW 6344   0.775   5.057   2.185
 2034SOL    HW1 6345   0.750   4.965   2.193
 2034SOL    HW2 6346   0.857   5.064   2.234
 2035SOL     OW 6347   0.622   5.281   3.150
 2035SOL    HW1 6348   0.621   5.363   3.199
 2035SOL    HW2 6349   0.710   5.275   3.113
 2036SOL     OW 6350   1.359   3.774   2.036
 2036SOL    HW1 6351   1.394   3.704   1.981
 2036SOL    HW2 6352   1.269   3.748   2.056
 2037SOL     OW 6353   1.295   4.188   2.539
 2037SOL    HW1 6354   1.244   4.268   2.543
 2037SOL    HW2 6355   1.291   4.152   2.627
 2038SOL     OW 6356   1.589   3.918   2.750
 2038SOL    HW1 6357   1.532   3.943   2.823
 2038SOL    HW2 6358   1.587   3.994   2.692
 2039SOL     OW 6359   0.065   4.789   2.141
 2039SOL    HW1 6360   0.154   4.751   2.142
 2039SOL    HW2 6361   0.008   4.714   2.159
 2040SOL     OW 6362   0.891   5.387   2.199
 2040SOL    HW1 6363   0.816   5.372   2.141
 2040SOL    HW2 6364   0.863   5.458   2.256
 2041SOL     OW 6365   0.172   4.376   3.842
 2041SOL    HW1 6366   0.173   4.316   3.916
 2041SOL    HW2 6367   0.219   4.330   3.772
 2042SOL     OW 6368   0.227   3.997   4.712
 2042SOL    HW1 6369   0.276   3.961   4.786
 2042SOL    HW2 6370   0.136   3.980   4.733
 2043SOL     OW 6371   6.986   4.108   4.375
 2043SOL    HW1 6372   6.940   4.105   4.459
 2043SOL    HW2 6373   0.014   4.018   4.359
 2044SOL     OW 6374   0.570   5.023   4.912
 2044SOL    HW1 6375   0.485   5.028   4.868
 2044SOL    HW2 6376   0.587   5.112   4.943
 2045SOL     OW 6377   1.574   5.239   4.433
 2045SOL    HW1 6378   1.530   5.215   4.514
 2045SOL    HW2 6379   1.504   5.243   4.368
 2046SOL     OW 6380   1.133   4.423   4.418
 2046SOL    HW1 6381   1.181   4.505   4.406
 2046SOL    HW2 6382   1.086   4.435   4.500
 2047SOL     OW 6383   1.763   4.324   3.960
 2047SOL    HW1 6384   1.738   4.322   3.867
 2047SOL    HW2 6385   1.722   4.246   3.997
 2048SOL     OW 6386   0.742   4.860   4.772
 2048SOL    HW1 6387   0.677   4.899   4.831
 2048SOL    HW2 6388   0.783   4.935   4.729
 2049SOL     OW 6389   0.876   4.483   5.548
 2049SOL    HW1 6390   0.868   4.553   5.613
 2049SOL    HW2 6391   0.898   4.528   5.467
 2050SOL     OW 6392   0.684   4.720   4.369
 2050SOL    HW1 6393   0.751   4.715   4.437
 2050SOL    HW2 6394   0.616   4.776   4.408
 2051SOL     OW 6395   0.716   4.873   5.546
 2051SOL    HW1 6396   0.764   4.949   5.577
 2051SOL    HW2 6397   0.637   4.909   5.505
 2052SOL     OW 6398   0.338   5.140   4.789
 2052SOL    HW1 6399   0.264   5.104   4.741
 2052SOL    HW2 6400   0.383   5.197   4.727
 2053SOL     OW 6401   1.459   5.227   5.087
 2053SOL    HW1 6402   1.513   5.305   5.097
 2053SOL    HW2 6403   1.389   5.237   5.152
 2054SOL     OW 6404   0.442   4.115   5.216
 2054SOL    HW1 6405   0.520   4.060   5.220
 2054SOL    HW2 6406   0.369   4.054   5.225
 2055SOL     OW 6407   1.603   4.164   4.471
 2055SOL    HW1 6408   1.533   4.182   4.408
 2055SOL    HW2 6409   1.602   4.239   4.530
 2056SOL     OW 6410   0.223   5.432   4.191
 2056SOL    HW1 6411   0.241   5.510   4.244
 2056SOL    HW2 6412   0.291   5.434   4.123
 2057SOL     OW 6413   1.138   5.066   5.418
 2057SOL    HW1 6414   1.179   5.059   5.505
 2057SOL    HW2 6415   1.086   4.987   5.410
 2058SOL     OW 6416   0.286   5.167   4.242
 2058SOL    HW1 6417   0.258   5.258   4.249
 2058SOL    HW2 6418   0.241   5.122   4.314
 2059SOL     OW 6419   0.272   4.807   4.626
 2059SOL    HW1 6420   0.268   4.716   4.655
 2059SOL    HW2 6421   0.201   4.850   4.672
 2060SOL     OW 6422   0.602   5.517   5.151
 2060SOL    HW1 6423   0.519   5.500   5.195
 2060SOL    HW2 6424   0.627   5.606   5.178
 2061SOL     OW 6425   0.576   4.710   3.865
 2061SOL    HW1 6426   0.627   4.754   3.797
 2061SOL    HW2 6427   0.615   4.741   3.947
 2062SOL     OW 6428   1.595   3.852   5.187
 2062SOL    HW1 6429   1.621   3.932   5.142
 2062SOL    HW2 6430   1.573   3.882   5.276
 2063SOL     OW 6431   0.136   4.335   4.298
 2063SOL    HW1 6432   0.067   4.272   4.321
 2063SOL    HW2 6433   0.120   4.409   4.356
 2064SOL     OW 6434   1.844   5.476   4.053
 2064SOL    HW1 6435   1.914   5.452   4.114
 2064SOL    HW2 6436   1.861   5.569   4.034
 2065SOL     OW 6437   0.036   5.317   3.872
 2065SOL    HW1 6438   0.027   5.223   3.886
 2065SOL    HW2 6439   6.952   5.354   3.902
 2066SOL     OW 6440   1.690   4.643   4.370
 2066SOL    HW1 6441   1.771   4.600   4.345
 2066SOL    HW2 6442   1.666   4.696   4.294
 2067SOL     OW 6443   1.643   4.826   4.157
 2067SOL    HW1 6444   1.729   4.826   4.114
 2067SOL    HW2 6445   1.652   4.891   4.228
 2068SOL     OW 6446   0.151   4.455   5.298
 2068SOL    HW1 6447   0.245   4.466   5.286
 2068SOL    HW2 6448   0.120   4.540   5.330
 2069SOL     OW 6449   0.616   5.115   4.461
 2069SOL    HW1 6450   0.571   5.032   4.470
 2069SOL    HW2 6451   0.600   5.142   4.370
 2070SOL     OW 6452   1.284   4.959   5.144
 2070SOL    HW1 6453   1.314   4.890   5.084
 2070SOL    HW2 6454   1.344   4.953   5.218
 2071SOL     OW 6455   0.821   3.730   4.238
 2071SOL    HW1 6456   0.861   3.813   4.214
 2071SOL    HW2 6457   0.728   3.748   4.243
 2072SOL     OW 6458   0.203   4.684   4.985
 2072SOL    HW1 6459   0.283   4.635   4.968
 2072SOL    HW2 6460   0.141   4.651   4.920
 2073SOL     OW 6461   1.524   4.726   3.927
 2073SOL    HW1 6462   1.456   4.668   3.960
 2073SOL    HW2 6463   1.568   4.759   4.006
 2074SOL     OW 6464   1.183   5.539   5.351
 2074SOL    HW1 6465   1.188   5.601   5.278
 2074SOL    HW2 6466   1.201   5.454   5.312
 2075SOL     OW 6467   0.361   3.974   5.563
 2075SOL    HW1 6468   0.399   4.056   5.595
 2075SOL    HW2 6469   0.267   3.984   5.579
 2076SOL     OW 6470   1.468   5.143   4.669
 2076SOL    HW1 6471   1.402   5.159   4.736
 2076SOL    HW2 6472   1.454   5.052   4.643
 2077SOL     OW 6473   1.652   5.482   4.300
 2077SOL    HW1 6474   1.633   5.447   4.212
 2077SOL    HW2 6475   1.635   5.409   4.359
 2078SOL     OW 6476   0.587   4.434   3.988
 2078SOL    HW1 6477   0.597   4.521   3.948
 2078SOL    HW2 6478   0.528   4.448   4.062
 2079SOL     OW 6479   1.279   4.093   4.659
 2079SOL    HW1 6480   1.190   4.058   4.667
 2079SOL    HW2 6481   1.332   4.038   4.717
 2080SOL     OW 6482   1.578   5.398   4.035
 2080SOL    HW1 6483   1.670   5.422   4.027
 2080SOL    HW2 6484   1.549   5.382   3.946
 2081SOL     OW 6485   0.791   4.342   5.171
 2081SOL    HW1 6486   0.765   4.315   5.259
 2081SOL    HW2 6487   0.758   4.272   5.114
 2082SOL     OW 6488   1.392   4.198   5.402
 2082SOL    HW1 6489   1.397   4.243   5.486
 2082SOL    HW2 6490   1.448   4.121   5.412
 2083SOL     OW 6491   0.948   4.608   5.311
 2083SOL    HW1 6492   1.004   4.541   5.271
 2083SOL    HW2 6493   0.900   4.646   5.237
 2084SOL     OW 6494   0.995   4.133   4.955
 2084SOL    HW1 6495   0.905   4.149   4.983
 2084SOL    HW2 6496   0.986   4.091   4.869
 2085SOL     OW 6497   1.054   4.422   4.148
 2085SOL    HW1 6498   1.073   4.416   4.241
 2085SOL    HW2 6499   0.970   4.377   4.137
 2086SOL     OW 6500   0.097   4.538   4.501
 2086SOL    HW1 6501   0.187   4.535   4.533
 2086SOL    HW2 6502   0.044   4.561   4.578
 2087SOL     OW 6503   0.109   5.592   5.317
 2087SOL    HW1 6504   0.125   5.569   5.409
 2087SOL    HW2 6505   0.017   5.569   5.302
 2088SOL     OW 6506   0.900   4.075   3.921
 2088SOL    HW1 6507   0.940   4.138   3.861
 2088SOL    HW2 6508   0.905   3.991   3.874
 2089SOL     OW 6509   1.702   4.293   5.555
 2089SOL    HW1 6510   1.668   4.367   5.505
 2089SOL    HW2 6511   1.730   4.230   5.489
 2090SOL     OW 6512   1.380   4.867   4.264
 2090SOL    HW1 6513   1.459   4.855   4.212
 2090SOL    HW2 6514   1.327   4.929   4.214
 2091SOL     OW 6515   0.555   3.901   4.622
 2091SOL    HW1 6516   0.561   3.931   4.713
 2091SOL    HW2 6517   0.556   3.982   4.570
 2092SOL     OW 6518   0.998   5.169   4.191
 2092SOL    HW1 6519   0.969   5.244   4.141
 2092SOL    HW2 6520   0.973   5.189   4.281
 2093SOL     OW 6521   0.353   5.544   4.591
 2093SOL    HW1 6522   0.394   5.458   4.602
 2093SOL    HW2 6523   0.423   5.607   4.613
 2094SOL     OW 6524   1.802   4.773   4.597
 2094SOL    HW1 6525   1.749   4.754   4.520
 2094SOL    HW2 6526   1.737   4.781   4.668
 2095SOL     OW 6527   1.226   5.265   5.237
 2095SOL    HW1 6528   1.215   5.193   5.299
 2095SOL    HW2 6529   1.157   5.253   5.172
 2096SOL     OW 6530   0.313   4.670   3.977
 2096SOL    HW1 6531   0.395   4.691   3.933
 2096SOL    HW2 6532   0.287   4.586   3.940
 2097SOL     OW 6533   1.482   4.476   4.444
 2097SOL    HW1 6534   1.480   4.436   4.531
 2097SOL    HW2 6535   1.560   4.531   4.445
 2098SOL     OW 6536   0.474   4.990   5.459
 2098SOL    HW1 6537   0.448   4.998   5.368
 2098SOL    HW2 6538   0.392   4.989   5.508
 2099SOL     OW 6539   1.126   5.502   3.952
 2099SOL    HW1 6540   1.049   5.464   3.995
 2099SOL    HW2 6541   1.150   5.438   3.885
 2100SOL     OW 6542   0.195   3.981   5.212
 2100SOL    HW1 6543   0.114   4.031   5.206
 2100SOL    HW2 6544   0.169   3.900   5.256
 2101SOL     OW 6545   1.624   5.110   3.813
 2101SOL    HW1 6546   1.581   5.194   3.798
 2101SOL    HW2 6547   1.557   5.045   3.791
 2102SOL     OW 6548   0.465   5.461   4.040
 2102SOL    HW1 6549   0.510   5.513   4.106
 2102SOL    HW2 6550   0.535   5.425   3.986
 2103SOL     OW 6551   1.400   3.831   4.167
 2103SOL    HW1 6552   1.392   3.806   4.075
 2103SOL    HW2 6553   1.494   3.835   4.183
 2104SOL     OW 6554   0.256   5.517   4.947
 2104SOL    HW1 6555   0.303   5.442   4.984
 2104SOL    HW2 6556   0.212   5.482   4.870
 2105SOL     OW 6557   0.940   5.425   4.619
 2105SOL    HW1 6558   1.019   5.376   4.641
 2105SOL    HW2 6559   0.900   5.374   4.548
 2106SOL     OW 6560   0.402   4.411   4.197
 2106SOL    HW1 6561   0.426   4.320   4.217
 2106SOL    HW2 6562   0.309   4.416   4.217
 2107SOL     OW 6563   1.525   3.948   5.447
 2107SOL    HW1 6564   1.537   3.968   5.540
 2107SOL    HW2 6565   1.457   3.881   5.445
 2108SOL     OW 6566   0.650   3.839   3.826
 2108SOL    HW1 6567   0.707   3.764   3.844
 2108SOL    HW2 6568   0.594   3.809   3.754
 2109SOL     OW 6569   0.762   4.003   5.480
 2109SOL    HW1 6570   0.844   3.953   5.476
 2109SOL    HW2 6571   0.716   3.968   5.556
 2110SOL     OW 6572   0.877   5.248   4.918
 2110SOL    HW1 6573   0.858   5.209   4.833
 2110SOL    HW2 6574   0.945   5.193   4.956
 2111SOL     OW 6575   1.337   4.314   5.157
 2111SOL    HW1 6576   1.369   4.283   5.242
 2111SOL    HW2 6577   1.375   4.401   5.148
 2112SOL     OW 6578   0.819   5.111   4.672
 2112SOL    HW1 6579   0.904   5.101   4.629
 2112SOL    HW2 6580   0.757   5.120   4.601
 2113SOL     OW 6581   0.930   4.233   4.623
 2113SOL    HW1 6582   0.904   4.224   4.531
 2113SOL    HW2 6583   0.959   4.146   4.648
 2114SOL     OW 6584   0.553   3.786   4.221
 2114SOL    HW1 6585   0.472   3.785   4.272
 2114SOL    HW2 6586   0.544   3.862   4.163
 2115SOL     OW 6587   1.426   4.926   3.761
 2115SOL    HW1 6588   1.456   4.851   3.813
 2115SOL    HW2 6589   1.341   4.949   3.798
 2116SOL     OW 6590   0.286   3.771   3.919
 2116SOL    HW1 6591   0.339   3.841   3.881
 2116SOL    HW2 6592   0.349   3.709   3.953
 2117SOL     OW 6593   0.943   3.975   4.179
 2117SOL    HW1 6594   0.919   4.012   4.094
 2117SOL    HW2 6595   1.038   3.989   4.186
 2118SOL     OW 6596   1.080   4.410   5.179
 2118SOL    HW1 6597   1.016   4.339   5.184
 2118SOL    HW2 6598   1.165   4.365   5.174
 2119SOL     OW 6599   1.218   5.298   4.519
 2119SOL    HW1 6600   1.231   5.362   4.450
 2119SOL    HW2 6601   1.288   5.315   4.582
 2120SOL     OW 6602   0.472   4.877   4.454
 2120SOL    HW1 6603   0.408   4.856   4.522
 2120SOL    HW2 6604   0.425   4.864   4.371
 2121SOL     OW 6605   1.262   5.516   4.338
 2121SOL    HW1 6606   1.311   5.578   4.283
 2121SOL    HW2 6607   1.193   5.568   4.378
 2122SOL     OW 6608   1.024   4.256   3.751
 2122SOL    HW1 6609   0.981   4.339   3.731
 2122SOL    HW2 6610   1.089   4.278   3.817
 2123SOL     OW 6611   0.070   4.277   5.097
 2123SOL    HW1 6612   0.163   4.270   5.075
 2123SOL    HW2 6613   0.067   4.343   5.166
 2124SOL     OW 6614   0.567   3.951   4.894
 2124SOL    HW1 6615   0.610   3.878   4.939
 2124SOL    HW2 6616   0.476   3.946   4.923
 2125SOL     OW 6617   0.865   4.180   4.362
 2125SOL    HW1 6618   0.821   4.237   4.299
 2125SOL    HW2 6619   0.889   4.102   4.312
 2126SOL     OW 6620   1.018   3.780   4.470
 2126SOL    HW1 6621   0.959   3.774   4.395
 2126SOL    HW2 6622   0.994   3.705   4.525
 2127SOL     OW 6623   1.440   4.883   4.581
 2127SOL    HW1 6624   1.368   4.820   4.582
 2127SOL    HW2 6625   1.462   4.891   4.488
 2128SOL     OW 6626   1.466   4.335   4.688
 2128SOL    HW1 6627   1.407   4.259   4.692
 2128SOL    HW2 6628   1.522   4.326   4.765
 2129SOL     OW 6629   1.851   4.538   4.105
 2129SOL    HW1 6630   1.902   4.485   4.166
 2129SOL    HW2 6631   1.815   4.474   4.043
 2130SOL     OW 6632   0.500   5.148   3.872
 2130SOL    HW1 6633   0.421   5.122   3.919
 2130SOL    HW2 6634   0.491   5.107   3.785
 2131SOL     OW 6635   1.680   4.989   4.366
 2131SOL    HW1 6636   1.775   4.988   4.380
 2131SOL    HW2 6637   1.653   5.078   4.387
 2132SOL     OW 6638   1.393   4.296   3.795
 2132SOL    HW1 6639   1.331   4.275   3.865
 2132SOL    HW2 6640   1.476   4.261   3.825
 2133SOL     OW 6641   0.529   3.982   4.033
 2133SOL    HW1 6642   0.580   3.935   3.967
 2133SOL    HW2 6643   0.501   4.062   3.990
 2134SOL     OW 6644   1.747   4.967   5.281
 2134SOL    HW1 6645   1.834   4.929   5.274
 2134SOL    HW2 6646   1.762   5.056   5.312
 2135SOL     OW 6647   1.053   5.077   5.055
 2135SOL    HW1 6648   0.977   5.046   5.104
 2135SOL    HW2 6649   1.128   5.035   5.097
 2136SOL     OW 6650   1.609   5.353   5.384
 2136SOL    HW1 6651   1.600   5.387   5.295
 2136SOL    HW2 6652   1.691   5.302   5.382
 2137SOL     OW 6653   1.137   4.937   4.825
 2137SOL    HW1 6654   1.076   4.974   4.889
 2137SOL    HW2 6655   1.108   4.972   4.741
 2138SOL     OW 6656   1.622   4.819   4.799
 2138SOL    HW1 6657   1.615   4.882   4.871
 2138SOL    HW2 6658   1.547   4.838   4.742
 2139SOL     OW 6659   0.918   3.816   5.114
 2139SOL    HW1 6660   0.941   3.798   5.023
 2139SOL    HW2 6661   0.997   3.855   5.151
 2140SOL     OW 6662   0.985   4.839   5.447
 2140SOL    HW1 6663   0.894   4.856   5.472
 2140SOL    HW2 6664   0.981   4.760   5.393
 2141SOL     OW 6665   0.709   4.786   4.097
 2141SOL    HW1 6666   0.695   4.766   4.189
 2141SOL    HW2 6667   0.784   4.733   4.071
 2142SOL     OW 6668   0.430   4.532   4.970
 2142SOL    HW1 6669   0.495   4.545   5.039
 2142SOL    HW2 6670   0.392   4.446   4.988
 2143SOL     OW 6671   1.263   4.098   5.007
 2143SOL    HW1 6672   1.295   4.176   5.051
 2143SOL    HW2 6673   1.172   4.118   4.984
 2144SOL     OW 6674   0.067   5.289   5.051
 2144SOL    HW1 6675   0.023   5.371   5.075
 2144SOL    HW2 6676   0.160   5.305   5.067
 2145SOL     OW 6677   0.336   4.839   4.216
 2145SOL    HW1 6678   0.346   4.911   4.154
 2145SOL    HW2 6679   0.333   4.761   4.161
 2146SOL     OW 6680   0.545   4.252   4.584
 2146SOL    HW1 6681   0.559   4.311   4.510
 2146SOL    HW2 6682   0.612   4.278   4.648
 2147SOL     OW 6683   1.246   5.074   4.116
 2147SOL    HW1 6684   1.302   5.145   4.148
 2147SOL    HW2 6685   1.159   5.096   4.148
 2148SOL     OW 6686   1.292   5.186   4.872
 2148SOL    HW1 6687   1.347   5.191   4.951
 2148SOL    HW2 6688   1.237   5.109   4.887
 2149SOL     OW 6689   1.573   4.340   4.212
 2149SOL    HW1 6690   1.525   4.388   4.280
 2149SOL    HW2 6691   1.608   4.409   4.155
 2150SOL     OW 6692   0.348   5.259   5.032
 2150SOL    HW1 6693   0.334   5.211   4.950
 2150SOL    HW2 6694   0.443   5.269   5.039
 2151SOL     OW 6695   0.429   4.457   5.327
 2151SOL    HW1 6696   0.488   4.505   5.269
 2151SOL    HW2 6697   0.476   4.376   5.346
 2152SOL     OW 6698   1.611   4.506   5.412
 2152SOL    HW1 6699   1.525   4.547   5.406
 2152SOL    HW2 6700   1.663   4.547   5.343
 2153SOL     OW 6701   0.996   3.859   5.477
 2153SOL    HW1 6702   1.054   3.932   5.457
 2153SOL    HW2 6703   1.045   3.781   5.453
 2154SOL     OW 6704   0.501   3.758   5.475
 2154SOL    HW1 6705   0.451   3.710   5.408
 2154SOL    HW2 6706   0.447   3.835   5.494
 2155SOL     OW 6707   0.592   4.598   4.755
 2155SOL    HW1 6708   0.622   4.688   4.758
 2155SOL    HW2 6709   0.534   4.589   4.831
 2156SOL     OW 6710   1.343   4.582   4.743
 2156SOL    HW1 6711   1.257   4.565   4.706
 2156SOL    HW2 6712   1.391   4.499   4.732
 2157SOL     OW 6713   1.198   4.250   3.985
 2157SOL    HW1 6714   1.206   4.172   4.040
 2157SOL    HW2 6715   1.156   4.315   4.042
 2158SOL     OW 6716   0.310   3.918   4.968
 2158SOL    HW1 6717   0.269   3.947   5.050
 2158SOL    HW2 6718   0.291   3.824   4.964
 2159SOL     OW 6719   0.089   5.031   4.982
 2159SOL    HW1 6720   0.102   4.973   5.058
 2159SOL    HW2 6721   0.085   5.119   5.020
 2160SOL     OW 6722   0.719   4.351   4.774
 2160SOL    HW1 6723   0.797   4.339   4.719
 2160SOL    HW2 6724   0.691   4.441   4.758
 2161SOL     OW 6725   1.741   4.684   5.584
 2161SOL    HW1 6726   1.698   4.615   5.533
 2161SOL    HW2 6727   1.680   4.702   5.655
 2162SOL     OW 6728   0.305   3.785   4.344
 2162SOL    HW1 6729   0.284   3.876   4.366
 2162SOL    HW2 6730   0.314   3.742   4.429
 2163SOL     OW 6731   1.624   4.105   4.083
 2163SOL    HW1 6732   1.652   4.037   4.145
 2163SOL    HW2 6733   1.597   4.178   4.138
 2164SOL     OW 6734   1.030   4.482   4.681
 2164SOL    HW1 6735   1.019   4.499   4.775
 2164SOL    HW2 6736   1.003   4.391   4.670
 2165SOL     OW 6737   0.982   5.290   5.447
 2165SOL    HW1 6738   0.965   5.334   5.363
 2165SOL    HW2 6739   1.025   5.208   5.423
 2166SOL     OW 6740   1.849   5.224   5.327
 2166SOL    HW1 6741   1.872   5.252   5.239
 2166SOL    HW2 6742   1.930   5.237   5.378
 2167SOL     OW 6743   0.366   4.642   5.526
 2167SOL    HW1 6744   0.443   4.664   5.578
 2167SOL    HW2 6745   0.397   4.576   5.464
 2168SOL     OW 6746   1.520   3.999   3.849
 2168SOL    HW1 6747   1.459   3.931   3.878
 2168SOL    HW2 6748   1.558   4.034   3.929
 2169SOL     OW 6749   1.286   4.547   3.752
 2169SOL    HW1 6750   1.329   4.462   3.756
 2169SOL    HW2 6751   1.318   4.586   3.670
 2170SOL     OW 6752   1.070   5.064   4.582
 2170SOL    HW1 6753   1.076   4.993   4.519
 2170SOL    HW2 6754   1.127   5.133   4.546
 2171SOL     OW 6755   0.320   4.527   4.665
 2171SOL    HW1 6756   0.414   4.547   4.665
 2171SOL    HW2 6757   0.314   4.440   4.703
 2172SOL     OW 6758   0.325   4.247   4.740
 2172SOL    HW1 6759   0.289   4.160   4.724
 2172SOL    HW2 6760   0.402   4.252   4.684
 2173SOL     OW 6761   1.134   4.096   5.411
 2173SOL    HW1 6762   1.087   4.150   5.473
 2173SOL    HW2 6763   1.221   4.136   5.405
 2174SOL     OW 6764   1.160   3.920   5.196
 2174SOL    HW1 6765   1.149   3.983   5.268
 2174SOL    HW2 6766   1.203   3.971   5.127
 2175SOL     OW 6767   6.994   5.049   3.945
 2175SOL    HW1 6768   6.924   5.070   4.006
 2175SOL    HW2 6769   0.018   4.958   3.966
 2176SOL     OW 6770   0.096   5.472   4.680
 2176SOL    HW1 6771   0.081   5.402   4.617
 2176SOL    HW2 6772   0.175   5.516   4.648
 2177SOL     OW 6773   0.490   5.302   4.627
 2177SOL    HW1 6774   0.559   5.364   4.651
 2177SOL    HW2 6775   0.534   5.238   4.570
 2178SOL     OW 6776   0.970   4.509   4.946
 2178SOL    HW1 6777   1.031   4.492   5.018
 2178SOL    HW2 6778   0.887   4.471   4.974
 2179SOL     OW 6779   0.051   4.335   4.827
 2179SOL    HW1 6780   0.130   4.294   4.792
 2179SOL    HW2 6781   0.051   4.312   4.919
 2180SOL     OW 6782   0.212   4.233   5.441
 2180SOL    HW1 6783   0.287   4.192   5.398
 2180SOL    HW2 6784   0.199   4.316   5.395
 2181SOL     OW 6785   1.382   4.655   5.380
 2181SOL    HW1 6786   1.403   4.749   5.376
 2181SOL    HW2 6787   1.378   4.628   5.289
 2182SOL     OW 6788   0.816   4.294   4.090
 2182SOL    HW1 6789   0.825   4.219   4.031
 2182SOL    HW2 6790   0.741   4.342   4.056
 2183SOL     OW 6791   1.639   4.325   4.901
 2183SOL    HW1 6792   1.630   4.267   4.977
 2183SOL    HW2 6793   1.728   4.307   4.869
 2184SOL     OW 6794   0.281   5.284   5.457
 2184SOL    HW1 6795   0.229   5.344   5.510
 2184SOL    HW2 6796   0.264   5.198   5.495
 2185SOL     OW 6797   0.716   4.170   4.976
 2185SOL    HW1 6798   0.660   4.096   4.950
 2185SOL    HW2 6799   0.706   4.233   4.904
 2186SOL     OW 6800   0.922   5.402   5.196
 2186SOL    HW1 6801   0.897   5.362   5.113
 2186SOL    HW2 6802   0.915   5.496   5.180
 2187SOL     OW 6803   0.447   4.206   3.902
 2187SOL    HW1 6804   0.499   4.284   3.920
 2187SOL    HW2 6805   0.369   4.215   3.958
 2188SOL     OW 6806   0.162   4.851   5.190
 2188SOL    HW1 6807   0.153   4.789   5.262
 2188SOL    HW2 6808   0.175   4.797   5.112
 2189SOL     OW 6809   1.319   4.766   4.942
 2189SOL    HW1 6810   1.339   4.703   4.873
 2189SOL    HW2 6811   1.254   4.824   4.902
 2190SOL     OW 6812   1.315   4.578   4.028
 2190SOL    HW1 6813   1.240   4.547   4.079
 2190SOL    HW2 6814   1.289   4.564   3.936
 2191SOL     OW 6815   1.781   5.458   4.883
 2191SOL    HW1 6816   1.840   5.485   4.813
 2191SOL    HW2 6817   1.753   5.370   4.859
 2192SOL     OW 6818   1.239   5.456   4.827
 2192SOL    HW1 6819   1.322   5.481   4.787
 2192SOL    HW2 6820   1.250   5.364   4.848
 2193SOL     OW 6821   0.066   4.962   4.724
 2193SOL    HW1 6822   0.083   4.983   4.816
 2193SOL    HW2 6823   6.971   4.954   4.718
 2194SOL     OW 6824   0.681   5.397   5.465
 2194SOL    HW1 6825   0.619   5.470   5.457
 2194SOL    HW2 6826   0.748   5.416   5.400
 2195SOL     OW 6827   1.723   3.883   4.229
 2195SOL    HW1 6828   1.792   3.867   4.164
 2195SOL    HW2 6829   1.706   3.797   4.268
 2196SOL     OW 6830   1.394   5.292   4.217
 2196SOL    HW1 6831   1.451   5.326   4.148
 2196SOL    HW2 6832   1.342   5.367   4.245
 2197SOL     OW 6833   0.141   5.510   5.578
 2197SOL    HW1 6834   0.100   5.442   5.631
 2197SOL    HW2 6835   0.188   5.564   5.641
 2198SOL     OW 6836   1.277   4.653   4.395
 2198SOL    HW1 6837   1.352   4.593   4.405
 2198SOL    HW2 6838   1.312   4.724   4.341
 2199SOL     OW 6839   0.802   5.002   5.146
 2199SOL    HW1 6840   0.775   5.044   5.228
 2199SOL    HW2 6841   0.730   5.021   5.085
 2200SOL     OW 6842   0.673   5.355   3.880
 2200SOL    HW1 6843   0.685   5.369   3.786
 2200SOL    HW2 6844   0.619   5.276   3.885
 2201SOL     OW 6845   1.618   5.452   5.116
 2201SOL    HW1 6846   1.672   5.456   5.038
 2201SOL    HW2 6847   1.604   5.544   5.140
 2202SOL     OW 6848   1.844   3.893   4.688
 2202SOL    HW1 6849   1.872   3.805   4.665
 2202SOL    HW2 6850   1.757   3.901   4.650
 2203SOL     OW 6851   0.264   4.038   4.438
 2203SOL    HW1 6852   0.198   4.107   4.424
 2203SOL    HW2 6853   0.260   4.022   4.533
 2204SOL     OW 6854   1.208   5.324   3.758
 2204SOL    HW1 6855   1.197   5.232   3.784
 2204SOL    HW2 6856   1.141   5.337   3.690
 2205SOL     OW 6857   0.824   4.732   5.100
 2205SOL    HW1 6858   0.865   4.726   5.014
 2205SOL    HW2 6859   0.819   4.826   5.117
 2206SOL     OW 6860   0.916   4.634   4.016
 2206SOL    HW1 6861   0.975   4.667   3.948
 2206SOL    HW2 6862   0.966   4.567   4.062
 2207SOL     OW 6863   1.487   5.357   3.770
 2207SOL    HW1 6864   1.393   5.345   3.754
 2207SOL    HW2 6865   1.526   5.362   3.682
 2208SOL     OW 6866   0.374   5.032   5.215
 2208SOL    HW1 6867   0.358   5.109   5.160
 2208SOL    HW2 6868   0.306   4.970   5.189
 2209SOL     OW 6869   1.607   5.009   5.003
 2209SOL    HW1 6870   1.665   4.991   5.077
 2209SOL    HW2 6871   1.547   5.076   5.036
 2210SOL     OW 6872   1.064   4.836   4.437
 2210SOL    HW1 6873   0.991   4.786   4.473
 2210SOL    HW2 6874   1.127   4.769   4.411
 2211SOL     OW 6875   1.025   3.967   4.690
 2211SOL    HW1 6876   1.022   3.921   4.606
 2211SOL    HW2 6877   1.020   3.898   4.756
 2212SOL     OW 6878   0.610   5.214   4.206
 2212SOL    HW1 6879   0.658   5.164   4.140
 2212SOL    HW2 6880   0.528   5.238   4.163
 2213SOL     OW 6881   1.729   4.115   5.104
 2213SOL    HW1 6882   1.801   4.178   5.104
 2213SOL    HW2 6883   1.758   4.045   5.046
 2214SOL     OW 6884   0.263   5.073   3.996
 2214SOL    HW1 6885   0.168   5.079   3.986
 2214SOL    HW2 6886   0.280   5.109   4.083
 2215SOL     OW 6887   0.122   4.695   5.424
 2215SOL    HW1 6888   0.074   4.745   5.490
 2215SOL    HW2 6889   0.208   4.681   5.463
 2216SOL     OW 6890   0.677   3.919   5.223
 2216SOL    HW1 6891   0.761   3.897   5.184
 2216SOL    HW2 6892   0.699   3.951   5.310
 2217SOL     OW 6893   0.103   4.034   3.760
 2217SOL    HW1 6894   0.012   4.010   3.773
 2217SOL    HW2 6895   0.100   4.117   3.714
 2218SOL     OW 6896   1.424   4.581   5.120
 2218SOL    HW1 6897   1.374   4.641   5.066
 2218SOL    HW2 6898   1.512   4.583   5.084
 2219SOL     OW 6899   0.068   3.917   4.063
 2219SOL    HW1 6900   0.014   3.892   3.989
 2219SOL    HW2 6901   0.148   3.864   4.053
 2220SOL     OW 6902   1.178   5.057   3.842
 2220SOL    HW1 6903   1.086   5.029   3.843
 2220SOL    HW2 6904   1.203   5.058   3.935
 2221SOL     OW 6905   0.622   4.555   5.160
 2221SOL    HW1 6906   0.678   4.632   5.146
 2221SOL    HW2 6907   0.683   4.482   5.166
 2222SOL     OW 6908   1.483   5.512   4.708
 2222SOL    HW1 6909   1.505   5.579   4.644
 2222SOL    HW2 6910   1.568   5.482   4.742
 2223SOL     OW 6911   0.714   4.283   5.423
 2223SOL    HW1 6912   0.761   4.341   5.483
 2223SOL    HW2 6913   0.732   4.195   5.456
 2224SOL     OW 6914   1.474   4.916   5.351
 2224SOL    HW1 6915   1.462   4.933   5.445
 2224SOL    HW2 6916   1.566   4.937   5.335
 2225SOL     OW 6917   0.368   5.476   5.286
 2225SOL    HW1 6918   0.281   5.514   5.271
 2225SOL    HW2 6919   0.350   5.395   5.333
 2226SOL     OW 6920   1.663   4.603   4.979
 2226SOL    HW1 6921   1.659   4.518   4.935
 2226SOL    HW2 6922   1.652   4.667   4.908
 2227SOL     OW 6923   1.216   4.043   4.181
 2227SOL    HW1 6924   1.277   3.970   4.175
 2227SOL    HW2 6925   1.245   4.094   4.257
 2228SOL     OW 6926   0.587   4.457   4.400
 2228SOL    HW1 6927   0.627   4.544   4.388
 2228SOL    HW2 6928   0.525   4.450   4.329
 2229SOL     OW 6929   1.755   4.087   5.378
 2229SOL    HW1 6930   1.741   4.104   5.284
 2229SOL    HW2 6931   1.681   4.031   5.402
 2230SOL     OW 6932   1.750   4.657   5.234
 2230SOL    HW1 6933   1.737   4.751   5.247
 2230SOL    HW2 6934   1.730   4.642   5.141
 2231SOL     OW 6935   0.867   5.088   3.771
 2231SOL    HW1 6936   0.827   5.115   3.853
 2231SOL    HW2 6937   0.879   5.169   3.722
 2232SOL     OW 6938   0.665   5.507   4.660
 2232SOL    HW1 6939   0.647   5.599   4.641
 2232SOL    HW2 6940   0.760   5.499   4.654
 2233SOL     OW 6941   0.870   4.697   4.577
 2233SOL    HW1 6942   0.919   4.623   4.614
 2233SOL    HW2 6943   0.829   4.739   4.653
 2234SOL     OW 6944   1.075   4.710   3.812
 2234SOL    HW1 6945   1.055   4.763   3.735
 2234SOL    HW2 6946   1.149   4.656   3.786
 2235SOL     OW 6947   1.844   5.277   4.565
 2235SOL    HW1 6948   1.765   5.266   4.512
 2235SOL    HW2 6949   1.833   5.216   4.638
 2236SOL     OW 6950   0.237   5.032   5.588
 2236SOL    HW1 6951   0.148   4.996   5.581
 2236SOL    HW2 6952   0.251   5.041   5.682
 2237SOL     OW 6953   0.152   5.007   4.424
 2237SOL    HW1 6954   0.117   4.963   4.502
 2237SOL    HW2 6955   0.179   4.936   4.366
 2238SOL     OW 6956   0.689   5.134   5.357
 2238SOL    HW1 6957   0.609   5.091   5.388
 2238SOL    HW2 6958   0.685   5.222   5.394
 2239SOL     OW 6959   1.811   3.905   4.959
 2239SOL    HW1 6960   1.816   3.810   4.972
 2239SOL    HW2 6961   1.823   3.917   4.865
 2240SOL     OW 6962   0.451   4.155   4.258
 2240SOL    HW1 6963   0.479   4.084   4.199
 2240SOL    HW2 6964   0.402   4.110   4.327
 2241SOL     OW 6965   1.697   5.208   4.813
 2241SOL    HW1 6966   1.618   5.189   4.763
 2241SOL    HW2 6967   1.700   5.140   4.880
 2242SOL     OW 6968   0.333   4.279   5.021
 2242SOL    HW1 6969   0.384   4.222   5.077
 2242SOL    HW2 6970   0.350   4.248   4.932
 2243SOL     OW 6971   0.833   5.303   4.398
 2243SOL    HW1 6972   0.810   5.369   4.332
 2243SOL    HW2 6973   0.758   5.244   4.399
 2244SOL     OW 6974   1.428   3.954   4.841
 2244SOL    HW1 6975   1.446   3.870   4.882
 2244SOL    HW2 6976   1.378   4.003   4.906
 2245SOL     OW 6977   1.009   3.740   4.858
 2245SOL    HW1 6978   0.954   3.675   4.815
 2245SOL    HW2 6979   1.096   3.701   4.859
 2246SOL     OW 6980   0.775   5.057   4.047
 2246SOL    HW1 6981   0.749   4.965   4.055
 2246SOL    HW2 6982   0.857   5.064   4.096
 2247SOL     OW 6983   0.622   5.280   5.012
 2247SOL    HW1 6984   0.621   5.363   5.061
 2247SOL    HW2 6985   0.710   5.275   4.975
 2248SOL     OW 6986   1.359   3.775   3.899
 2248SOL    HW1 6987   1.394   3.705   3.843
 2248SOL    HW2 6988   1.269   3.747   3.918
 2249SOL     OW 6989   1.296   4.188   4.401
 2249SOL    HW1 6990   1.244   4.269   4.404
 2249SOL    HW2 6991   1.291   4.153   4.490
 2250SOL     OW 6992   1.584   3.917   4.609
 2250SOL    HW1 6993   1.529   3.943   4.683
 2250SOL    HW2 6994   1.584   3.994   4.551
 2251SOL     OW 6995   0.065   4.789   4.003
 2251SOL    HW1 6996   0.154   4.751   4.004
 2251SOL    HW2 6997   0.008   4.714   4.021
 2252SOL     OW 6998   0.891   5.387   4.061
 2252SOL    HW1 6999   0.816   5.372   4.003
 2252SOL    HW2 7000   0.863   5.458   4.118
 2253SOL     OW 7001   0.173   4.376   5.704
 2253SOL    HW1 7002   0.174   4.315   5.778
 2253SOL    HW2 7003   0.219   4.330   5.634
 2254SOL     OW 7004   0.223   4.004   6.572
 2254SOL    HW1 7005   0.276   3.966   6.642
 2254SOL    HW2 7006   0.133   3.982   6.595
 2255SOL     OW 7007   6.987   4.107   6.238
 2255SOL    HW1 7008   6.940   4.104   6.321
 2255SOL    HW2 7009   0.010   4.015   6.220
 2256SOL     OW 7010   0.563   5.009   6.760
 2256SOL    HW1 7011   0.480   5.030   6.718
 2256SOL    HW2 7012   0.584   5.086   6.813
 2257SOL     OW 7013   1.573   5.239   6.296
 2257SOL    HW1 7014   1.527   5.216   6.376
 2257SOL    HW2 7015   1.504   5.243   6.229
 2258SOL     OW 7016   1.132   4.422   6.281
 2258SOL    HW1 7017   1.179   4.505   6.270
 2258SOL    HW2 7018   1.083   4.434   6.362
 2259SOL     OW 7019   1.781   4.320   5.810
 2259SOL    HW1 7020   1.753   4.316   5.719
 2259SOL    HW2 7021   1.740   4.245   5.852
 2260SOL     OW 7022   0.758   4.864   6.634
 2260SOL    HW1 7023   0.689   4.893   6.693
 2260SOL    HW2 7024   0.785   4.943   6.588
 2261SOL     OW 7025   0.685   4.720   6.231
 2261SOL    HW1 7026   0.752   4.714   6.299
 2261SOL    HW2 7027   0.617   4.776   6.269
 2262SOL     OW 7028   0.338   5.126   6.640
 2262SOL    HW1 7029   0.263   5.096   6.590
 2262SOL    HW2 7030   0.382   5.188   6.582
 2263SOL     OW 7031   1.603   4.166   6.332
 2263SOL    HW1 7032   1.532   4.181   6.270
 2263SOL    HW2 7033   1.595   4.237   6.395
 2264SOL     OW 7034   0.223   5.432   6.052
 2264SOL    HW1 7035   0.241   5.510   6.105
 2264SOL    HW2 7036   0.291   5.434   5.984
 2265SOL     OW 7037   0.288   5.167   6.104
 2265SOL    HW1 7038   0.259   5.258   6.110
 2265SOL    HW2 7039   0.242   5.123   6.176
 2266SOL     OW 7040   0.271   4.805   6.485
 2266SOL    HW1 7041   0.269   4.715   6.517
 2266SOL    HW2 7042   0.197   4.848   6.529
 2267SOL     OW 7043   0.610   5.525   6.979
 2267SOL    HW1 7044   0.520   5.511   0.008
 2267SOL    HW2 7045   0.632   5.613   0.011
 2268SOL     OW 7046   0.576   4.710   5.727
 2268SOL    HW1 7047   0.627   4.754   5.659
 2268SOL    HW2 7048   0.615   4.741   5.809
 2269SOL     OW 7049   0.136   4.334   6.159
 2269SOL    HW1 7050   0.067   4.271   6.182
 2269SOL    HW2 7051   0.121   4.408   6.217
 2270SOL     OW 7052   1.844   5.476   5.915
 2270SOL    HW1 7053   1.914   5.452   5.975
 2270SOL    HW2 7054   1.860   5.568   5.895
 2271SOL     OW 7055   0.036   5.317   5.734
 2271SOL    HW1 7056   0.027   5.223   5.748
 2271SOL    HW2 7057   6.951   5.354   5.762
 2272SOL     OW 7058   1.692   4.644   6.230
 2272SOL    HW1 7059   1.770   4.596   6.202
 2272SOL    HW2 7060   1.667   4.696   6.153
 2273SOL     OW 7061   1.651   4.827   6.015
 2273SOL    HW1 7062   1.737   4.826   5.974
 2273SOL    HW2 7063   1.658   4.891   6.086
 2274SOL     OW 7064   0.615   5.115   6.322
 2274SOL    HW1 7065   0.569   5.032   6.331
 2274SOL    HW2 7066   0.599   5.142   6.232
 2275SOL     OW 7067   0.822   3.729   6.101
 2275SOL    HW1 7068   0.861   3.813   6.076
 2275SOL    HW2 7069   0.728   3.748   6.106
 2276SOL     OW 7070   0.199   4.664   6.828
 2276SOL    HW1 7071   0.287   4.626   6.820
 2276SOL    HW2 7072   0.153   4.633   6.750
 2277SOL     OW 7073   1.531   4.725   5.786
 2277SOL    HW1 7074   1.462   4.668   5.819
 2277SOL    HW2 7075   1.574   4.758   5.865
 2278SOL     OW 7076   1.457   5.147   6.531
 2278SOL    HW1 7077   1.400   5.157   6.606
 2278SOL    HW2 7078   1.449   5.055   6.506
 2279SOL     OW 7079   1.651   5.483   6.162
 2279SOL    HW1 7080   1.633   5.447   6.074
 2279SOL    HW2 7081   1.636   5.409   6.221
 2280SOL     OW 7082   0.587   4.435   5.849
 2280SOL    HW1 7083   0.596   4.521   5.810
 2280SOL    HW2 7084   0.528   4.448   5.924
 2281SOL     OW 7085   1.276   4.090   6.518
 2281SOL    HW1 7086   1.187   4.055   6.528
 2281SOL    HW2 7087   1.328   4.038   6.580
 2282SOL     OW 7088   1.578   5.398   5.898
 2282SOL    HW1 7089   1.670   5.422   5.889
 2282SOL    HW2 7090   1.549   5.381   5.808
 2283SOL     OW 7091   0.798   4.332   0.055
 2283SOL    HW1 7092   0.732   4.373   0.110
 2283SOL    HW2 7093   0.748   4.281   6.991
 2284SOL     OW 7094   0.999   4.117   6.799
 2284SOL    HW1 7095   0.926   4.165   6.837
 2284SOL    HW2 7096   0.962   4.071   6.724
 2285SOL     OW 7097   1.054   4.422   6.010
 2285SOL    HW1 7098   1.073   4.416   6.103
 2285SOL    HW2 7099   0.970   4.377   5.999
 2286SOL     OW 7100   0.100   4.535   6.360
 2286SOL    HW1 7101   0.190   4.536   6.393
 2286SOL    HW2 7102   0.046   4.560   6.435
 2287SOL     OW 7103   0.105   5.563   0.168
 2287SOL    HW1 7104   0.090   5.532   0.257
 2287SOL    HW2 7105   0.018   5.563   0.127
 2288SOL     OW 7106   0.899   4.075   5.783
 2288SOL    HW1 7107   0.940   4.138   5.723
 2288SOL    HW2 7108   0.903   3.992   5.737
 2289SOL     OW 7109   1.382   4.866   6.125
 2289SOL    HW1 7110   1.461   4.855   6.073
 2289SOL    HW2 7111   1.328   4.928   6.075
 2290SOL     OW 7112   0.555   3.899   6.481
 2290SOL    HW1 7113   0.568   3.930   6.571
 2290SOL    HW2 7114   0.556   3.979   6.428
 2291SOL     OW 7115   0.998   5.169   6.053
 2291SOL    HW1 7116   0.969   5.244   6.002
 2291SOL    HW2 7117   0.972   5.190   6.143
 2292SOL     OW 7118   0.354   5.544   6.450
 2292SOL    HW1 7119   0.392   5.458   6.465
 2292SOL    HW2 7120   0.423   5.606   6.474
 2293SOL     OW 7121   1.807   4.775   6.452
 2293SOL    HW1 7122   1.756   4.752   6.374
 2293SOL    HW2 7123   1.744   4.774   6.523
 2294SOL     OW 7124   0.312   4.669   5.839
 2294SOL    HW1 7125   0.395   4.691   5.795
 2294SOL    HW2 7126   0.286   4.585   5.801
 2295SOL     OW 7127   1.481   4.476   6.303
 2295SOL    HW1 7128   1.478   4.434   6.389
 2295SOL    HW2 7129   1.560   4.530   6.306
 2296SOL     OW 7130   1.126   5.502   5.814
 2296SOL    HW1 7131   1.049   5.464   5.857
 2296SOL    HW2 7132   1.150   5.438   5.747
 2297SOL     OW 7133   1.629   5.107   5.679
 2297SOL    HW1 7134   1.588   5.192   5.663
 2297SOL    HW2 7135   1.561   5.043   5.656
 2298SOL     OW 7136   0.465   5.461   5.902
 2298SOL    HW1 7137   0.510   5.513   5.968
 2298SOL    HW2 7138   0.536   5.425   5.847
 2299SOL     OW 7139   1.399   3.831   6.029
 2299SOL    HW1 7140   1.392   3.805   5.937
 2299SOL    HW2 7141   1.493   3.835   6.045
 2300SOL     OW 7142   0.250   5.539   6.776
 2300SOL    HW1 7143   0.299   5.464   6.811
 2300SOL    HW2 7144   0.185   5.500   6.718
 2301SOL     OW 7145   0.941   5.422   6.479
 2301SOL    HW1 7146   1.022   5.374   6.497
 2301SOL    HW2 7147   0.899   5.372   6.408
 2302SOL     OW 7148   0.403   4.411   6.058
 2302SOL    HW1 7149   0.427   4.320   6.078
 2302SOL    HW2 7150   0.309   4.415   6.078
 2303SOL     OW 7151   0.650   3.839   5.688
 2303SOL    HW1 7152   0.706   3.763   5.706
 2303SOL    HW2 7153   0.594   3.809   5.616
 2304SOL     OW 7154   0.876   5.242   6.761
 2304SOL    HW1 7155   0.855   5.210   6.674
 2304SOL    HW2 7156   0.915   5.167   6.806
 2305SOL     OW 7157   0.818   5.111   6.523
 2305SOL    HW1 7158   0.902   5.101   6.479
 2305SOL    HW2 7159   0.754   5.118   6.452
 2306SOL     OW 7160   0.931   4.234   6.484
 2306SOL    HW1 7161   0.905   4.225   6.393
 2306SOL    HW2 7162   0.964   4.148   6.509
 2307SOL     OW 7163   0.554   3.786   6.083
 2307SOL    HW1 7164   0.472   3.785   6.133
 2307SOL    HW2 7165   0.544   3.862   6.025
 2308SOL     OW 7166   1.428   4.926   5.624
 2308SOL    HW1 7167   1.457   4.851   5.676
 2308SOL    HW2 7168   1.343   4.949   5.660
 2309SOL     OW 7169   0.286   3.772   5.781
 2309SOL    HW1 7170   0.339   3.842   5.743
 2309SOL    HW2 7171   0.349   3.709   5.815
 2310SOL     OW 7172   0.943   3.975   6.041
 2310SOL    HW1 7173   0.920   4.012   5.956
 2310SOL    HW2 7174   1.037   3.989   6.048
 2311SOL     OW 7175   1.216   5.299   6.382
 2311SOL    HW1 7176   1.230   5.365   6.314
 2311SOL    HW2 7177   1.292   5.307   6.439
 2312SOL     OW 7178   0.472   4.877   6.315
 2312SOL    HW1 7179   0.408   4.856   6.383
 2312SOL    HW2 7180   0.425   4.863   6.232
 2313SOL     OW 7181   1.262   5.516   6.200
 2313SOL    HW1 7182   1.310   5.578   6.146
 2313SOL    HW2 7183   1.191   5.567   6.239
 2314SOL     OW 7184   1.025   4.256   5.613
 2314SOL    HW1 7185   0.981   4.339   5.594
 2314SOL    HW2 7186   1.089   4.278   5.680
 2315SOL     OW 7187   0.583   3.949   6.752
 2315SOL    HW1 7188   0.623   3.871   6.789
 2315SOL    HW2 7189   0.492   3.945   6.779
 2316SOL     OW 7190   0.864   4.181   6.223
 2316SOL    HW1 7191   0.821   4.237   6.159
 2316SOL    HW2 7192   0.889   4.103   6.175
 2317SOL     OW 7193   1.020   3.774   6.326
 2317SOL    HW1 7194   0.959   3.768   6.252
 2317SOL    HW2 7195   0.996   3.702   6.383
 2318SOL     OW 7196   1.435   4.883   6.441
 2318SOL    HW1 7197   1.370   4.813   6.443
 2318SOL    HW2 7198   1.457   4.893   6.348
 2319SOL     OW 7199   1.466   4.333   6.545
 2319SOL    HW1 7200   1.407   4.259   6.556
 2319SOL    HW2 7201   1.525   4.329   6.620
 2320SOL     OW 7202   1.839   4.533   5.972
 2320SOL    HW1 7203   1.898   4.485   6.030
 2320SOL    HW2 7204   1.816   4.470   5.903
 2321SOL     OW 7205   0.500   5.148   5.733
 2321SOL    HW1 7206   0.421   5.122   5.781
 2321SOL    HW2 7207   0.490   5.108   5.647
 2322SOL     OW 7208   1.679   4.990   6.225
 2322SOL    HW1 7209   1.773   4.989   6.241
 2322SOL    HW2 7210   1.652   5.079   6.248
 2323SOL     OW 7211   1.393   4.297   5.657
 2323SOL    HW1 7212   1.332   4.275   5.727
 2323SOL    HW2 7213   1.478   4.267   5.689
 2324SOL     OW 7214   0.530   3.982   5.895
 2324SOL    HW1 7215   0.580   3.935   5.828
 2324SOL    HW2 7216   0.501   4.062   5.852
 2325SOL     OW 7217   1.758   4.915   0.178
 2325SOL    HW1 7218   1.853   4.904   0.175
 2325SOL    HW2 7219   1.744   5.007   0.154
 2326SOL     OW 7220   1.114   4.965   6.693
 2326SOL    HW1 7221   1.037   4.912   6.714
 2326SOL    HW2 7222   1.102   4.991   6.602
 2327SOL     OW 7223   1.619   4.800   6.645
 2327SOL    HW1 7224   1.617   4.869   6.711
 2327SOL    HW2 7225   1.545   4.821   6.587
 2328SOL     OW 7226   0.709   4.786   5.958
 2328SOL    HW1 7227   0.696   4.766   6.051
 2328SOL    HW2 7228   0.785   4.733   5.933
 2329SOL     OW 7229   0.441   4.528   6.849
 2329SOL    HW1 7230   0.486   4.554   6.930
 2329SOL    HW2 7231   0.403   4.442   6.868
 2330SOL     OW 7232   1.266   4.115   6.856
 2330SOL    HW1 7233   1.290   4.188   6.912
 2330SOL    HW2 7234   1.175   4.132   6.833
 2331SOL     OW 7235   0.081   5.295   6.862
 2331SOL    HW1 7236   0.043   5.315   6.948
 2331SOL    HW2 7237   0.175   5.302   6.876
 2332SOL     OW 7238   0.336   4.839   6.077
 2332SOL    HW1 7239   0.345   4.912   6.016
 2332SOL    HW2 7240   0.333   4.761   6.022
 2333SOL     OW 7241   0.544   4.256   6.448
 2333SOL    HW1 7242   0.558   4.313   6.373
 2333SOL    HW2 7243   0.613   4.278   6.509
 2334SOL     OW 7244   1.246   5.075   5.977
 2334SOL    HW1 7245   1.302   5.145   6.009
 2334SOL    HW2 7246   1.159   5.096   6.010
 2335SOL     OW 7247   1.288   5.169   6.749
 2335SOL    HW1 7248   1.321   5.147   6.836
 2335SOL    HW2 7249   1.223   5.101   6.730
 2336SOL     OW 7250   1.576   4.343   6.070
 2336SOL    HW1 7251   1.527   4.388   6.139
 2336SOL    HW2 7252   1.619   4.413   6.021
 2337SOL     OW 7253   0.360   5.301   6.847
 2337SOL    HW1 7254   0.344   5.231   6.784
 2337SOL    HW2 7255   0.452   5.292   6.870
 2338SOL     OW 7256   0.589   4.596   6.621
 2338SOL    HW1 7257   0.619   4.687   6.623
 2338SOL    HW2 7258   0.539   4.586   6.703
 2339SOL     OW 7259   1.338   4.584   6.588
 2339SOL    HW1 7260   1.253   4.559   6.554
 2339SOL    HW2 7261   1.391   4.505   6.583
 2340SOL     OW 7262   1.198   4.250   5.847
 2340SOL    HW1 7263   1.207   4.172   5.901
 2340SOL    HW2 7264   1.156   4.315   5.904
 2341SOL     OW 7265   0.325   3.926   6.824
 2341SOL    HW1 7266   0.307   3.933   6.918
 2341SOL    HW2 7267   0.299   3.836   6.802
 2342SOL     OW 7268   0.049   5.021   6.830
 2342SOL    HW1 7269   0.085   4.961   6.895
 2342SOL    HW2 7270   0.086   5.106   6.854
 2343SOL     OW 7271   0.721   4.348   6.636
 2343SOL    HW1 7272   0.799   4.334   6.582
 2343SOL    HW2 7273   0.697   4.439   6.620
 2344SOL     OW 7274   0.305   3.785   6.204
 2344SOL    HW1 7275   0.284   3.876   6.226
 2344SOL    HW2 7276   0.314   3.742   6.289
 2345SOL     OW 7277   1.625   4.105   5.943
 2345SOL    HW1 7278   1.652   4.039   6.007
 2345SOL    HW2 7279   1.599   4.180   5.996
 2346SOL     OW 7280   1.028   4.484   6.551
 2346SOL    HW1 7281   1.018   4.499   6.645
 2346SOL    HW2 7282   1.003   4.392   6.539
 2347SOL     OW 7283   1.923   5.195   0.199
 2347SOL    HW1 7284   1.901   5.225   0.111
 2347SOL    HW2 7285   1.910   5.272   0.255
 2348SOL     OW 7286   1.525   3.996   5.711
 2348SOL    HW1 7287   1.463   3.929   5.741
 2348SOL    HW2 7288   1.561   4.033   5.791
 2349SOL     OW 7289   1.285   4.548   5.613
 2349SOL    HW1 7290   1.328   4.462   5.618
 2349SOL    HW2 7291   1.318   4.586   5.532
 2350SOL     OW 7292   1.072   5.064   6.439
 2350SOL    HW1 7293   1.078   4.992   6.376
 2350SOL    HW2 7294   1.128   5.133   6.402
 2351SOL     OW 7295   0.319   4.529   6.536
 2351SOL    HW1 7296   0.413   4.549   6.533
 2351SOL    HW2 7297   0.315   4.438   6.567
 2352SOL     OW 7298   0.327   4.250   6.606
 2352SOL    HW1 7299   0.291   4.163   6.587
 2352SOL    HW2 7300   0.405   4.255   6.550
 2353SOL     OW 7301   1.145   3.967   0.061
 2353SOL    HW1 7302   1.216   3.989   0.121
 2353SOL    HW2 7303   1.172   4.003   6.977
 2354SOL     OW 7304   6.994   5.049   5.807
 2354SOL    HW1 7305   6.924   5.070   5.869
 2354SOL    HW2 7306   0.018   4.958   5.828
 2355SOL     OW 7307   0.095   5.475   6.537
 2355SOL    HW1 7308   0.081   5.404   6.474
 2355SOL    HW2 7309   0.176   5.516   6.509
 2356SOL     OW 7310   0.490   5.301   6.490
 2356SOL    HW1 7311   0.558   5.364   6.515
 2356SOL    HW2 7312   0.534   5.239   6.433
 2357SOL     OW 7313   0.976   4.510   6.823
 2357SOL    HW1 7314   1.052   4.487   6.877
 2357SOL    HW2 7315   0.902   4.471   6.869
 2358SOL     OW 7316   0.058   4.340   6.694
 2358SOL    HW1 7317   0.113   4.295   6.629
 2358SOL    HW2 7318   0.082   4.299   6.777
 2359SOL     OW 7319   0.816   4.294   5.952
 2359SOL    HW1 7320   0.825   4.219   5.893
 2359SOL    HW2 7321   0.741   4.342   5.918
 2360SOL     OW 7322   1.648   4.334   6.750
 2360SOL    HW1 7323   1.635   4.278   6.827
 2360SOL    HW2 7324   1.740   4.322   6.726
 2361SOL     OW 7325   0.681   4.190   6.853
 2361SOL    HW1 7326   0.650   4.106   6.820
 2361SOL    HW2 7327   0.688   4.245   6.775
 2362SOL     OW 7328   0.943   5.384   6.996
 2362SOL    HW1 7329   0.916   5.373   6.906
 2362SOL    HW2 7330   0.920   5.475   0.017
 2363SOL     OW 7331   0.447   4.206   5.763
 2363SOL    HW1 7332   0.499   4.284   5.782
 2363SOL    HW2 7333   0.370   4.215   5.819
 2364SOL     OW 7334   0.162   4.844   0.024
 2364SOL    HW1 7335   0.188   4.795   0.102
 2364SOL    HW2 7336   0.171   4.781   6.952
 2365SOL     OW 7337   1.273   4.721   6.817
 2365SOL    HW1 7338   1.307   4.677   6.739
 2365SOL    HW2 7339   1.263   4.812   6.791
 2366SOL     OW 7340   1.317   4.581   5.888
 2366SOL    HW1 7341   1.244   4.549   5.941
 2366SOL    HW2 7342   1.290   4.567   5.797
 2367SOL     OW 7343   1.787   5.475   6.746
 2367SOL    HW1 7344   1.845   5.492   6.672
 2367SOL    HW2 7345   1.749   5.389   6.726
 2368SOL     OW 7346   1.245   5.446   6.701
 2368SOL    HW1 7347   1.325   5.471   6.655
 2368SOL    HW2 7348   1.256   5.353   6.719
 2369SOL     OW 7349   0.056   4.957   6.570
 2369SOL    HW1 7350   0.063   4.979   6.663
 2369SOL    HW2 7351   6.962   4.952   6.554
 2370SOL     OW 7352   1.724   3.883   6.090
 2370SOL    HW1 7353   1.794   3.867   6.026
 2370SOL    HW2 7354   1.707   3.798   6.129
 2371SOL     OW 7355   1.394   5.292   6.079
 2371SOL    HW1 7356   1.451   5.326   6.010
 2371SOL    HW2 7357   1.342   5.367   6.107
 2372SOL     OW 7358   1.277   4.653   6.255
 2372SOL    HW1 7359   1.351   4.593   6.266
 2372SOL    HW2 7360   1.312   4.724   6.202
 2373SOL     OW 7361   0.673   5.354   5.742
 2373SOL    HW1 7362   0.685   5.369   5.648
 2373SOL    HW2 7363   0.619   5.275   5.747
 2374SOL     OW 7364   1.842   3.897   6.562
 2374SOL    HW1 7365   1.871   3.809   6.537
 2374SOL    HW2 7366   1.755   3.905   6.522
 2375SOL     OW 7367   0.264   4.040   6.297
 2375SOL    HW1 7368   0.195   4.103   6.280
 2375SOL    HW2 7369   0.259   4.024   6.392
 2376SOL     OW 7370   1.208   5.324   5.620
 2376SOL    HW1 7371   1.197   5.232   5.646
 2376SOL    HW2 7372   1.142   5.338   5.552
 2377SOL     OW 7373   0.773   4.746   6.958
 2377SOL    HW1 7374   0.831   4.705   6.893
 2377SOL    HW2 7375   0.824   4.820   6.991
 2378SOL     OW 7376   0.916   4.634   5.878
 2378SOL    HW1 7377   0.975   4.667   5.811
 2378SOL    HW2 7378   0.967   4.567   5.924
 2379SOL     OW 7379   1.488   5.354   5.632
 2379SOL    HW1 7380   1.394   5.343   5.617
 2379SOL    HW2 7381   1.527   5.360   5.545
 2380SOL     OW 7382   1.610   4.999   6.827
 2380SOL    HW1 7383   1.688   5.012   6.882
 2380SOL    HW2 7384   1.540   4.981   6.889
 2381SOL     OW 7385   1.063   4.834   6.297
 2381SOL    HW1 7386   0.990   4.783   6.333
 2381SOL    HW2 7387   1.128   4.768   6.272
 2382SOL     OW 7388   1.021   3.964   6.540
 2382SOL    HW1 7389   1.021   3.916   6.458
 2382SOL    HW2 7390   1.020   3.896   6.608
 2383SOL     OW 7391   0.610   5.214   6.068
 2383SOL    HW1 7392   0.658   5.164   6.001
 2383SOL    HW2 7393   0.528   5.238   6.025
 2384SOL     OW 7394   1.697   4.149   6.946
 2384SOL    HW1 7395   1.753   4.150   0.024
 2384SOL    HW2 7396   1.701   4.059   6.915
 2385SOL     OW 7397   0.263   5.073   5.858
 2385SOL    HW1 7398   0.168   5.079   5.848
 2385SOL    HW2 7399   0.280   5.109   5.945
 2386SOL     OW 7400   0.679   3.905   0.081
 2386SOL    HW1 7401   0.768   3.870   0.079
 2386SOL    HW2 7402   0.688   3.992   0.119
 2387SOL     OW 7403   0.104   4.034   5.622
 2387SOL    HW1 7404   0.012   4.010   5.636
 2387SOL    HW2 7405   0.100   4.117   5.575
 2388SOL     OW 7406   0.068   3.917   5.925
 2388SOL    HW1 7407   0.013   3.892   5.851
 2388SOL    HW2 7408   0.147   3.864   5.916
 2389SOL     OW 7409   1.178   5.057   5.704
 2389SOL    HW1 7410   1.086   5.030   5.704
 2389SOL    HW2 7411   1.203   5.058   5.796
 2390SOL     OW 7412   1.484   5.507   6.573
 2390SOL    HW1 7413   1.501   5.576   6.508
 2390SOL    HW2 7414   1.571   5.482   6.603
 2391SOL     OW 7415   1.499   5.028   0.275
 2391SOL    HW1 7416   1.413   4.997   0.303
 2391SOL    HW2 7417   1.551   4.948   0.265
 2392SOL     OW 7418   0.374   5.494   0.104
 2392SOL    HW1 7419   0.291   5.541   0.107
 2392SOL    HW2 7420   0.399   5.484   0.196
 2393SOL     OW 7421   1.706   4.602   6.831
 2393SOL    HW1 7422   1.672   4.518   6.803
 2393SOL    HW2 7423   1.671   4.665   6.768
 2394SOL     OW 7424   1.216   4.044   6.043
 2394SOL    HW1 7425   1.277   3.970   6.037
 2394SOL    HW2 7426   1.245   4.094   6.119
 2395SOL     OW 7427   0.585   4.459   6.263
 2395SOL    HW1 7428   0.626   4.544   6.250
 2395SOL    HW2 7429   0.524   4.450   6.190
 2396SOL     OW 7430   1.771   4.632   0.101
 2396SOL    HW1 7431   1.761   4.726   0.118
 2396SOL    HW2 7432   1.749   4.622   0.009
 2397SOL     OW 7433   0.868   5.088   5.633
 2397SOL    HW1 7434   0.827   5.115   5.715
 2397SOL    HW2 7435   0.880   5.169   5.584
 2398SOL     OW 7436   0.666   5.506   6.527
 2398SOL    HW1 7437   0.647   5.597   6.504
 2398SOL    HW2 7438   0.761   5.498   6.518
 2399SOL     OW 7439   0.870   4.695   6.440
 2399SOL    HW1 7440   0.918   4.622   6.479
 2399SOL    HW2 7441   0.832   4.741   6.514
 2400SOL     OW 7442   1.074   4.710   5.674
 2400SOL    HW1 7443   1.055   4.764   5.597
 2400SOL    HW2 7444   1.149   4.656   5.648
 2401SOL     OW 7445   1.848   5.278   6.425
 2401SOL    HW1 7446   1.768   5.266   6.375
 2401SOL    HW2 7447   1.845   5.211   6.494
 2402SOL     OW 7448   0.153   5.008   6.286
 2402SOL    HW1 7449   0.119   4.964   6.364
 2402SOL    HW2 7450   0.177   4.936   6.227
 2403SOL     OW 7451   1.810   3.892   6.838
 2403SOL    HW1 7452   1.794   3.798   6.833
 2403SOL    HW2 7453   1.822   3.920   6.747
 2404SOL     OW 7454   0.453   4.155   6.120
 2404SOL    HW1 7455   0.480   4.085   6.060
 2404SOL    HW2 7456   0.402   4.111   6.187
 2405SOL     OW 7457   1.681   5.231   6.677
 2405SOL    HW1 7458   1.608   5.210   6.620
 2405SOL    HW2 7459   1.686   5.157   6.738
 2406SOL     OW 7460   0.311   4.263   6.883
 2406SOL    HW1 7461   0.377   4.202   6.917
 2406SOL    HW2 7462   0.322   4.257   6.788
 2407SOL     OW 7463   0.833   5.304   6.257
 2407SOL    HW1 7464   0.812   5.372   6.193
 2407SOL    HW2 7465   0.757   5.246   6.256
 2408SOL     OW 7466   1.432   3.962   6.704
 2408SOL    HW1 7467   1.456   3.884   6.754
 2408SOL    HW2 7468   1.382   4.016   6.765
 2409SOL     OW 7469   1.015   3.739   6.703
 2409SOL    HW1 7470   0.964   3.671   6.659
 2409SOL    HW2 7471   1.101   3.698   6.717
 2410SOL     OW 7472   0.775   5.057   5.909
 2410SOL    HW1 7473   0.749   4.965   5.917
 2410SOL    HW2 7474   0.857   5.064   5.958
 2411SOL     OW 7475   0.630   5.278   6.871
 2411SOL    HW1 7476   0.629   5.370   6.895
 2411SOL    HW2 7477   0.714   5.266   6.827
 2412SOL     OW 7478   1.359   3.774   5.760
 2412SOL    HW1 7479   1.394   3.703   5.706
 2412SOL    HW2 7480   1.269   3.748   5.780
 2413SOL     OW 7481   1.297   4.188   6.263
 2413SOL    HW1 7482   1.244   4.268   6.267
 2413SOL    HW2 7483   1.290   4.151   6.351
 2414SOL     OW 7484   1.585   3.919   6.473
 2414SOL    HW1 7485   1.528   3.945   6.546
 2414SOL    HW2 7486   1.584   3.994   6.414
 2415SOL     OW 7487   0.065   4.788   5.865
 2415SOL    HW1 7488   0.153   4.751   5.866
 2415SOL    HW2 7489   0.007   4.714   5.883
 2416SOL     OW 7490   0.891   5.387   5.922
 2416SOL    HW1 7491   0.816   5.372   5.865
 2416SOL    HW2 7492   0.863   5.458   5.980
 2417SOL     OW 7493   0.238   6.238   0.134
 2417SOL    HW1 7494   0.162   6.192   0.169
 2417SOL    HW2 7495   0.245   6.208   0.043
 2418SOL     OW 7496   0.227   5.859   0.991
 2418SOL    HW1 7497   0.276   5.824   1.065
 2418SOL    HW2 7498   0.135   5.842   1.012
 2419SOL     OW 7499   6.983   5.973   0.656
 2419SOL    HW1 7500   6.937   5.971   0.739
 2419SOL    HW2 7501   0.007   5.881   0.640
 2420SOL     OW 7502   0.568   6.877   1.178
 2420SOL    HW1 7503   0.500   6.894   1.113
 2420SOL    HW2 7504   0.527   6.893   1.262
 2421SOL     OW 7505   1.544   0.052   0.690
 2421SOL    HW1 7506   1.532   0.047   0.785
 2421SOL    HW2 7507   1.460   0.085   0.657
 2422SOL     OW 7508   1.129   6.281   0.694
 2422SOL    HW1 7509   1.178   6.363   0.684
 2422SOL    HW2 7510   1.082   6.292   0.776
 2423SOL     OW 7511   1.789   6.168   0.202
 2423SOL    HW1 7512   1.722   6.204   0.144
 2423SOL    HW2 7513   1.742   6.107   0.259
 2424SOL     OW 7514   0.769   6.752   1.029
 2424SOL    HW1 7515   0.703   6.787   1.089
 2424SOL    HW2 7516   0.756   6.800   0.948
 2425SOL     OW 7517   0.879   6.345   1.826
 2425SOL    HW1 7518   0.863   6.413   1.892
 2425SOL    HW2 7519   0.900   6.393   1.746
 2426SOL     OW 7520   0.687   6.576   0.645
 2426SOL    HW1 7521   0.754   6.572   0.713
 2426SOL    HW2 7522   0.617   6.629   0.683
 2427SOL     OW 7523   0.692   6.732   1.814
 2427SOL    HW1 7524   0.725   6.819   1.834
 2427SOL    HW2 7525   0.624   6.747   1.748
 2428SOL     OW 7526   0.349   0.004   1.044
 2428SOL    HW1 7527   0.281   6.956   0.996
 2428SOL    HW2 7528   0.393   0.056   0.977
 2429SOL     OW 7529   0.443   5.976   1.491
 2429SOL    HW1 7530   0.521   5.920   1.495
 2429SOL    HW2 7531   0.370   5.916   1.501
 2430SOL     OW 7532   1.602   6.029   0.746
 2430SOL    HW1 7533   1.528   6.045   0.688
 2430SOL    HW2 7534   1.603   6.103   0.806
 2431SOL     OW 7535   0.267   6.672   0.913
 2431SOL    HW1 7536   0.253   6.581   0.941
 2431SOL    HW2 7537   0.194   6.721   0.950
 2432SOL     OW 7538   0.585   6.542   0.138
 2432SOL    HW1 7539   0.650   6.557   0.068
 2432SOL    HW2 7540   0.620   6.590   0.213
 2433SOL     OW 7541   1.595   5.715   1.463
 2433SOL    HW1 7542   1.622   5.794   1.417
 2433SOL    HW2 7543   1.573   5.744   1.552
 2434SOL     OW 7544   0.129   6.203   0.572
 2434SOL    HW1 7545   0.062   6.140   0.599
 2434SOL    HW2 7546   0.118   6.277   0.632
 2435SOL     OW 7547   1.690   6.490   0.649
 2435SOL    HW1 7548   1.777   6.453   0.634
 2435SOL    HW2 7549   1.674   6.543   0.570
 2436SOL     OW 7550   1.652   6.674   0.441
 2436SOL    HW1 7551   1.723   6.687   0.378
 2436SOL    HW2 7552   1.673   6.732   0.513
 2437SOL     OW 7553   0.150   6.317   1.574
 2437SOL    HW1 7554   0.245   6.329   1.563
 2437SOL    HW2 7555   0.119   6.400   1.610
 2438SOL     OW 7556   1.305   6.812   1.435
 2438SOL    HW1 7557   1.339   6.752   1.369
 2438SOL    HW2 7558   1.367   6.807   1.508
 2439SOL     OW 7559   0.824   5.594   0.520
 2439SOL    HW1 7560   0.864   5.677   0.496
 2439SOL    HW2 7561   0.730   5.613   0.523
 2440SOL     OW 7562   0.213   6.552   1.266
 2440SOL    HW1 7563   0.287   6.496   1.242
 2440SOL    HW2 7564   0.143   6.525   1.208
 2441SOL     OW 7565   1.498   6.591   0.204
 2441SOL    HW1 7566   1.432   6.533   0.243
 2441SOL    HW2 7567   1.578   6.574   0.254
 2442SOL     OW 7568   0.361   5.838   1.838
 2442SOL    HW1 7569   0.398   5.919   1.872
 2442SOL    HW2 7570   0.267   5.846   1.853
 2443SOL     OW 7571   1.466   6.982   0.952
 2443SOL    HW1 7572   1.388   0.008   1.001
 2443SOL    HW2 7573   1.446   6.894   0.920
 2444SOL     OW 7574   0.604   6.299   0.266
 2444SOL    HW1 7575   0.605   6.386   0.226
 2444SOL    HW2 7576   0.542   6.307   0.339
 2445SOL     OW 7577   1.279   5.954   0.934
 2445SOL    HW1 7578   1.190   5.919   0.943
 2445SOL    HW2 7579   1.332   5.899   0.993
 2446SOL     OW 7580   0.792   6.202   1.447
 2446SOL    HW1 7581   0.766   6.175   1.535
 2446SOL    HW2 7582   0.759   6.132   1.390
 2447SOL     OW 7583   1.392   6.060   1.678
 2447SOL    HW1 7584   1.397   6.104   1.763
 2447SOL    HW2 7585   1.448   5.983   1.688
 2448SOL     OW 7586   0.952   6.473   1.589
 2448SOL    HW1 7587   1.008   6.405   1.552
 2448SOL    HW2 7588   0.902   6.506   1.514
 2449SOL     OW 7589   0.995   5.995   1.231
 2449SOL    HW1 7590   0.905   6.010   1.260
 2449SOL    HW2 7591   0.986   5.952   1.146
 2450SOL     OW 7592   1.057   6.286   0.424
 2450SOL    HW1 7593   1.077   6.283   0.518
 2450SOL    HW2 7594   0.973   6.242   0.416
 2451SOL     OW 7595   0.099   6.400   0.774
 2451SOL    HW1 7596   0.188   6.395   0.810
 2451SOL    HW2 7597   0.044   6.426   0.848
 2452SOL     OW 7598   0.888   5.928   0.210
 2452SOL    HW1 7599   0.922   5.989   0.145
 2452SOL    HW2 7600   0.916   5.842   0.181
 2453SOL     OW 7601   1.701   6.154   1.830
 2453SOL    HW1 7602   1.668   6.229   1.780
 2453SOL    HW2 7603   1.730   6.092   1.764
 2454SOL     OW 7604   1.397   6.727   0.580
 2454SOL    HW1 7605   1.482   6.709   0.539
 2454SOL    HW2 7606   1.358   6.796   0.526
 2455SOL     OW 7607   0.558   5.767   0.899
 2455SOL    HW1 7608   0.562   5.792   0.991
 2455SOL    HW2 7609   0.560   5.850   0.851
 2456SOL     OW 7610   1.801   6.631   0.881
 2456SOL    HW1 7611   1.748   6.625   0.801
 2456SOL    HW2 7612   1.736   6.641   0.951
 2457SOL     OW 7613   0.317   6.518   0.246
 2457SOL    HW1 7614   0.399   6.536   0.200
 2457SOL    HW2 7615   0.293   6.429   0.219
 2458SOL     OW 7616   1.481   6.331   0.720
 2458SOL    HW1 7617   1.481   6.295   0.809
 2458SOL    HW2 7618   1.559   6.387   0.717
 2459SOL     OW 7619   0.195   5.843   1.489
 2459SOL    HW1 7620   0.114   5.894   1.483
 2459SOL    HW2 7621   0.169   5.762   1.533
 2460SOL     OW 7622   1.647   0.033   0.081
 2460SOL    HW1 7623   1.639   0.129   0.088
 2460SOL    HW2 7624   1.557   0.001   0.091
 2461SOL     OW 7625   1.403   5.694   0.450
 2461SOL    HW1 7626   1.400   5.667   0.358
 2461SOL    HW2 7627   1.497   5.702   0.469
 2462SOL     OW 7628   0.406   6.276   0.465
 2462SOL    HW1 7629   0.419   6.183   0.484
 2462SOL    HW2 7630   0.314   6.292   0.485
 2463SOL     OW 7631   1.525   5.810   1.723
 2463SOL    HW1 7632   1.536   5.830   1.816
 2463SOL    HW2 7633   1.458   5.742   1.721
 2464SOL     OW 7634   0.762   5.865   1.756
 2464SOL    HW1 7635   0.844   5.815   1.752
 2464SOL    HW2 7636   0.716   5.830   1.832
 2465SOL     OW 7637   1.337   6.174   1.434
 2465SOL    HW1 7638   1.368   6.143   1.519
 2465SOL    HW2 7639   1.375   6.261   1.424
 2466SOL     OW 7640   0.930   6.093   0.900
 2466SOL    HW1 7641   0.903   6.084   0.809
 2466SOL    HW2 7642   0.960   6.005   0.925
 2467SOL     OW 7643   0.557   5.654   0.502
 2467SOL    HW1 7644   0.478   5.656   0.555
 2467SOL    HW2 7645   0.545   5.724   0.438
 2468SOL     OW 7646   1.408   6.787   0.045
 2468SOL    HW1 7647   1.449   6.719   0.098
 2468SOL    HW2 7648   1.356   6.740   6.980
 2469SOL     OW 7649   0.947   5.835   0.464
 2469SOL    HW1 7650   0.919   5.874   0.381
 2469SOL    HW2 7651   1.041   5.851   0.468
 2470SOL     OW 7652   1.081   6.272   1.458
 2470SOL    HW1 7653   1.016   6.202   1.462
 2470SOL    HW2 7654   1.165   6.227   1.452
 2471SOL     OW 7655   1.282   0.153   0.742
 2471SOL    HW1 7656   1.240   0.223   0.691
 2471SOL    HW2 7657   1.271   0.180   0.833
 2472SOL     OW 7658   0.472   6.709   0.740
 2472SOL    HW1 7659   0.403   6.702   0.807
 2472SOL    HW2 7660   0.424   6.716   0.658
 2473SOL     OW 7661   1.072   6.191   0.028
 2473SOL    HW1 7662   0.979   6.190   0.050
 2473SOL    HW2 7663   1.116   6.162   0.107
 2474SOL     OW 7664   0.070   6.139   1.373
 2474SOL    HW1 7665   0.162   6.132   1.351
 2474SOL    HW2 7666   0.066   6.205   1.443
 2475SOL     OW 7667   0.567   5.811   1.171
 2475SOL    HW1 7668   0.610   5.739   1.217
 2475SOL    HW2 7669   0.476   5.807   1.200
 2476SOL     OW 7670   0.863   6.039   0.641
 2476SOL    HW1 7671   0.830   6.098   0.573
 2476SOL    HW2 7672   0.890   5.960   0.594
 2477SOL     OW 7673   1.018   5.640   0.746
 2477SOL    HW1 7674   0.958   5.634   0.672
 2477SOL    HW2 7675   0.995   5.566   0.802
 2478SOL     OW 7676   1.432   6.728   0.863
 2478SOL    HW1 7677   1.361   6.666   0.873
 2478SOL    HW2 7678   1.441   6.740   0.768
 2479SOL     OW 7679   1.466   6.193   0.965
 2479SOL    HW1 7680   1.408   6.118   0.970
 2479SOL    HW2 7681   1.523   6.186   1.042
 2480SOL     OW 7682   1.832   6.393   0.388
 2480SOL    HW1 7683   1.889   6.335   0.439
 2480SOL    HW2 7684   1.824   6.351   0.303
 2481SOL     OW 7685   1.691   6.828   0.650
 2481SOL    HW1 7686   1.782   6.848   0.672
 2481SOL    HW2 7687   1.643   6.909   0.670
 2482SOL     OW 7688   1.388   6.141   0.063
 2482SOL    HW1 7689   1.332   6.136   0.141
 2482SOL    HW2 7690   1.443   6.063   0.070
 2483SOL     OW 7691   0.510   5.840   0.310
 2483SOL    HW1 7692   0.518   5.785   0.233
 2483SOL    HW2 7693   0.487   5.927   0.275
 2484SOL     OW 7694   1.753   6.810   1.567
 2484SOL    HW1 7695   1.829   6.765   1.602
 2484SOL    HW2 7696   1.776   6.903   1.571
 2485SOL     OW 7697   1.072   6.893   1.320
 2485SOL    HW1 7698   0.999   6.875   1.380
 2485SOL    HW2 7699   1.150   6.875   1.372
 2486SOL     OW 7700   1.142   6.759   1.094
 2486SOL    HW1 7701   1.108   6.807   1.170
 2486SOL    HW2 7702   1.080   6.778   1.024
 2487SOL     OW 7703   1.619   6.681   1.081
 2487SOL    HW1 7704   1.600   6.734   1.158
 2487SOL    HW2 7705   1.545   6.698   1.022
 2488SOL     OW 7706   0.918   5.678   1.390
 2488SOL    HW1 7707   0.941   5.660   1.299
 2488SOL    HW2 7708   0.997   5.717   1.427
 2489SOL     OW 7709   0.971   6.698   1.741
 2489SOL    HW1 7710   0.876   6.708   1.756
 2489SOL    HW2 7711   0.978   6.628   1.677
 2490SOL     OW 7712   0.704   6.634   0.370
 2490SOL    HW1 7713   0.693   6.621   0.465
 2490SOL    HW2 7714   0.783   6.586   0.348
 2491SOL     OW 7715   0.431   6.390   1.245
 2491SOL    HW1 7716   0.494   6.404   1.316
 2491SOL    HW2 7717   0.392   6.305   1.265
 2492SOL     OW 7718   1.263   5.959   1.282
 2492SOL    HW1 7719   1.295   6.037   1.327
 2492SOL    HW2 7720   1.172   5.980   1.260
 2493SOL     OW 7721   0.028   0.144   1.356
 2493SOL    HW1 7722   6.956   0.207   1.351
 2493SOL    HW2 7723   0.083   0.177   1.428
 2494SOL     OW 7724   0.341   6.705   0.491
 2494SOL    HW1 7725   0.398   6.765   0.442
 2494SOL    HW2 7726   0.338   6.626   0.437
 2495SOL     OW 7727   0.547   6.112   0.855
 2495SOL    HW1 7728   0.560   6.174   0.784
 2495SOL    HW2 7729   0.612   6.136   0.921
 2496SOL     OW 7730   1.587   6.213   0.480
 2496SOL    HW1 7731   1.531   6.251   0.548
 2496SOL    HW2 7732   1.638   6.286   0.447
 2497SOL     OW 7733   0.429   6.315   1.604
 2497SOL    HW1 7734   0.488   6.363   1.545
 2497SOL    HW2 7735   0.476   6.233   1.622
 2498SOL     OW 7736   1.610   6.367   1.688
 2498SOL    HW1 7737   1.523   6.407   1.682
 2498SOL    HW2 7738   1.661   6.409   1.619
 2499SOL     OW 7739   0.995   5.722   1.753
 2499SOL    HW1 7740   1.054   5.794   1.732
 2499SOL    HW2 7741   1.044   5.643   1.728
 2500SOL     OW 7742   0.501   5.620   1.750
 2500SOL    HW1 7743   0.451   5.572   1.684
 2500SOL    HW2 7744   0.448   5.697   1.769
 2501SOL     OW 7745   0.588   6.453   1.030
 2501SOL    HW1 7746   0.600   6.548   1.023
 2501SOL    HW2 7747   0.532   6.441   1.107
 2502SOL     OW 7748   1.349   6.440   1.021
 2502SOL    HW1 7749   1.262   6.428   0.983
 2502SOL    HW2 7750   1.392   6.356   1.007
 2503SOL     OW 7751   1.195   6.106   0.266
 2503SOL    HW1 7752   1.209   6.031   0.324
 2503SOL    HW2 7753   1.158   6.174   0.322
 2504SOL     OW 7754   0.310   5.780   1.245
 2504SOL    HW1 7755   0.269   5.809   1.326
 2504SOL    HW2 7756   0.291   5.686   1.241
 2505SOL     OW 7757   0.112   6.903   1.269
 2505SOL    HW1 7758   0.114   6.835   1.337
 2505SOL    HW2 7759   0.069   6.977   1.310
 2506SOL     OW 7760   0.717   6.209   1.049
 2506SOL    HW1 7761   0.796   6.199   0.995
 2506SOL    HW2 7762   0.690   6.300   1.034
 2507SOL     OW 7763   1.739   6.547   1.857
 2507SOL    HW1 7764   1.696   6.477   1.807
 2507SOL    HW2 7765   1.681   6.561   1.932
 2508SOL     OW 7766   0.313   5.659   0.627
 2508SOL    HW1 7767   0.291   5.748   0.652
 2508SOL    HW2 7768   0.321   5.612   0.710
 2509SOL     OW 7769   1.631   5.970   0.362
 2509SOL    HW1 7770   1.647   5.904   0.430
 2509SOL    HW2 7771   1.605   6.048   0.410
 2510SOL     OW 7772   1.029   6.341   0.958
 2510SOL    HW1 7773   1.020   6.358   1.051
 2510SOL    HW2 7774   1.003   6.250   0.948
 2511SOL     OW 7775   1.865   0.059   1.593
 2511SOL    HW1 7776   1.906   0.135   1.552
 2511SOL    HW2 7777   1.911   0.049   1.677
 2512SOL     OW 7778   0.368   6.501   1.802
 2512SOL    HW1 7779   0.443   6.516   1.859
 2512SOL    HW2 7780   0.397   6.434   1.740
 2513SOL     OW 7781   1.475   5.886   0.146
 2513SOL    HW1 7782   1.449   5.796   0.160
 2513SOL    HW2 7783   1.532   5.907   0.220
 2514SOL     OW 7784   1.296   6.411   0.036
 2514SOL    HW1 7785   1.334   6.324   0.024
 2514SOL    HW2 7786   1.332   6.463   6.964
 2515SOL     OW 7787   0.317   6.385   0.941
 2515SOL    HW1 7788   0.410   6.406   0.939
 2515SOL    HW2 7789   0.313   6.298   0.981
 2516SOL     OW 7790   0.329   6.108   1.017
 2516SOL    HW1 7791   0.292   6.021   1.002
 2516SOL    HW2 7792   0.405   6.112   0.958
 2517SOL     OW 7793   1.135   5.958   1.686
 2517SOL    HW1 7794   1.087   6.011   1.749
 2517SOL    HW2 7795   1.221   5.998   1.681
 2518SOL     OW 7796   1.160   5.783   1.472
 2518SOL    HW1 7797   1.149   5.845   1.544
 2518SOL    HW2 7798   1.203   5.833   1.403
 2519SOL     OW 7799   0.011   6.908   0.211
 2519SOL    HW1 7800   6.939   6.926   0.272
 2519SOL    HW2 7801   0.046   6.824   0.239
 2520SOL     OW 7802   0.971   6.368   1.223
 2520SOL    HW1 7803   1.033   6.352   1.294
 2520SOL    HW2 7804   0.889   6.328   1.252
 2521SOL     OW 7805   0.050   6.193   1.102
 2521SOL    HW1 7806   0.130   6.152   1.069
 2521SOL    HW2 7807   0.050   6.172   1.196
 2522SOL     OW 7808   0.211   6.096   1.719
 2522SOL    HW1 7809   0.285   6.055   1.676
 2522SOL    HW2 7810   0.198   6.178   1.672
 2523SOL     OW 7811   1.382   6.520   1.657
 2523SOL    HW1 7812   1.410   6.611   1.651
 2523SOL    HW2 7813   1.378   6.490   1.566
 2524SOL     OW 7814   0.819   6.152   0.381
 2524SOL    HW1 7815   0.826   6.081   0.318
 2524SOL    HW2 7816   0.748   6.207   0.348
 2525SOL     OW 7817   1.639   6.184   1.177
 2525SOL    HW1 7818   1.631   6.127   1.253
 2525SOL    HW2 7819   1.728   6.168   1.144
 2526SOL     OW 7820   0.716   6.030   1.252
 2526SOL    HW1 7821   0.660   5.956   1.227
 2526SOL    HW2 7822   0.706   6.093   1.180
 2527SOL     OW 7823   0.461   6.079   0.192
 2527SOL    HW1 7824   0.520   6.151   0.215
 2527SOL    HW2 7825   0.374   6.119   0.188
 2528SOL     OW 7826   0.189   6.708   1.480
 2528SOL    HW1 7827   0.166   6.644   1.547
 2528SOL    HW2 7828   0.199   6.657   1.400
 2529SOL     OW 7829   1.335   6.622   1.222
 2529SOL    HW1 7830   1.356   6.558   1.154
 2529SOL    HW2 7831   1.267   6.676   1.183
 2530SOL     OW 7832   1.303   6.431   0.311
 2530SOL    HW1 7833   1.226   6.396   0.356
 2530SOL    HW2 7834   1.287   6.413   0.219
 2531SOL     OW 7835   0.068   6.831   1.011
 2531SOL    HW1 7836   0.088   6.853   1.103
 2531SOL    HW2 7837   6.974   6.816   1.010
 2532SOL     OW 7838   0.938   5.665   0.108
 2532SOL    HW1 7839   1.008   5.716   0.067
 2532SOL    HW2 7840   0.984   5.606   0.168
 2533SOL     OW 7841   1.705   5.746   0.516
 2533SOL    HW1 7842   1.781   5.736   0.458
 2533SOL    HW2 7843   1.694   5.659   0.556
 2534SOL     OW 7844   1.275   6.508   0.678
 2534SOL    HW1 7845   1.348   6.447   0.686
 2534SOL    HW2 7846   1.311   6.583   0.632
 2535SOL     OW 7847   0.812   6.841   1.419
 2535SOL    HW1 7848   0.785   6.879   1.502
 2535SOL    HW2 7849   0.744   6.869   1.357
 2536SOL     OW 7850   1.844   5.756   0.964
 2536SOL    HW1 7851   1.872   5.667   0.942
 2536SOL    HW2 7852   1.757   5.763   0.926
 2537SOL     OW 7853   0.262   5.907   0.722
 2537SOL    HW1 7854   0.191   5.970   0.704
 2537SOL    HW2 7855   0.256   5.890   0.816
 2538SOL     OW 7856   0.827   6.578   1.369
 2538SOL    HW1 7857   0.879   6.565   1.289
 2538SOL    HW2 7858   0.828   6.672   1.382
 2539SOL     OW 7859   0.924   6.502   0.290
 2539SOL    HW1 7860   0.981   6.538   0.223
 2539SOL    HW2 7861   0.977   6.436   0.334
 2540SOL     OW 7862   0.397   6.893   1.485
 2540SOL    HW1 7863   0.341   6.966   1.460
 2540SOL    HW2 7864   0.336   6.819   1.495
 2541SOL     OW 7865   1.597   6.850   1.317
 2541SOL    HW1 7866   1.668   6.831   1.378
 2541SOL    HW2 7867   1.550   6.923   1.358
 2542SOL     OW 7868   1.061   6.711   0.736
 2542SOL    HW1 7869   0.986   6.658   0.763
 2542SOL    HW2 7870   1.123   6.648   0.699
 2543SOL     OW 7871   1.025   5.828   0.966
 2543SOL    HW1 7872   1.022   5.781   0.882
 2543SOL    HW2 7873   1.020   5.759   1.032
 2544SOL     OW 7874   1.729   5.977   1.380
 2544SOL    HW1 7875   1.801   6.040   1.380
 2544SOL    HW2 7876   1.758   5.907   1.322
 2545SOL     OW 7877   0.120   6.554   1.705
 2545SOL    HW1 7878   0.073   6.613   1.765
 2545SOL    HW2 7879   0.206   6.544   1.745
 2546SOL     OW 7880   0.677   5.782   1.499
 2546SOL    HW1 7881   0.761   5.759   1.460
 2546SOL    HW2 7882   0.699   5.813   1.586
 2547SOL     OW 7883   0.064   5.978   0.016
 2547SOL    HW1 7884   6.978   5.972   6.974
 2547SOL    HW2 7885   0.124   5.999   6.944
 2548SOL     OW 7886   1.428   6.437   1.400
 2548SOL    HW1 7887   1.380   6.499   1.345
 2548SOL    HW2 7888   1.517   6.439   1.366
 2549SOL     OW 7889   0.031   5.782   0.364
 2549SOL    HW1 7890   0.074   5.865   0.346
 2549SOL    HW2 7891   0.103   5.720   0.377
 2550SOL     OW 7892   0.621   6.414   1.437
 2550SOL    HW1 7893   0.678   6.488   1.417
 2550SOL    HW2 7894   0.681   6.339   1.443
 2551SOL     OW 7895   0.715   6.144   1.700
 2551SOL    HW1 7896   0.763   6.201   1.760
 2551SOL    HW2 7897   0.732   6.056   1.732
 2552SOL     OW 7898   1.487   6.775   1.643
 2552SOL    HW1 7899   1.480   6.800   1.735
 2552SOL    HW2 7900   1.579   6.789   1.621
 2553SOL     OW 7901   1.664   6.461   1.252
 2553SOL    HW1 7902   1.659   6.376   1.207
 2553SOL    HW2 7903   1.653   6.526   1.182
 2554SOL     OW 7904   1.218   5.902   0.459
 2554SOL    HW1 7905   1.280   5.830   0.455
 2554SOL    HW2 7906   1.245   5.954   0.535
 2555SOL     OW 7907   0.586   6.316   0.673
 2555SOL    HW1 7908   0.627   6.402   0.666
 2555SOL    HW2 7909   0.524   6.313   0.601
 2556SOL     OW 7910   1.755   5.949   1.653
 2556SOL    HW1 7911   1.742   5.966   1.560
 2556SOL    HW2 7912   1.681   5.892   1.678
 2557SOL     OW 7913   1.739   6.520   1.507
 2557SOL    HW1 7914   1.737   6.616   1.515
 2557SOL    HW2 7915   1.726   6.503   1.414
 2558SOL     OW 7916   0.869   6.552   0.855
 2558SOL    HW1 7917   0.920   6.479   0.890
 2558SOL    HW2 7918   0.841   6.601   0.933
 2559SOL     OW 7919   1.087   6.585   0.079
 2559SOL    HW1 7920   1.038   6.569   6.998
 2559SOL    HW2 7921   1.165   6.530   0.071
 2560SOL     OW 7922   0.250   6.885   1.848
 2560SOL    HW1 7923   0.155   6.871   1.853
 2560SOL    HW2 7924   0.270   6.939   1.924
 2561SOL     OW 7925   0.171   6.865   0.661
 2561SOL    HW1 7926   0.110   6.816   0.717
 2561SOL    HW2 7927   0.209   6.799   0.604
 2562SOL     OW 7928   0.704   6.972   1.633
 2562SOL    HW1 7929   0.613   6.979   1.663
 2562SOL    HW2 7930   0.725   0.059   1.599
 2563SOL     OW 7931   1.811   5.767   1.235
 2563SOL    HW1 7932   1.816   5.672   1.248
 2563SOL    HW2 7933   1.823   5.779   1.141
 2564SOL     OW 7934   0.428   6.014   0.521
 2564SOL    HW1 7935   0.483   5.945   0.484
 2564SOL    HW2 7936   0.398   5.977   0.605
 2565SOL     OW 7937   1.660   0.036   1.132
 2565SOL    HW1 7938   1.602   0.022   1.057
 2565SOL    HW2 7939   1.644   6.961   1.189
 2566SOL     OW 7940   0.332   6.140   1.297
 2566SOL    HW1 7941   0.384   6.083   1.354
 2566SOL    HW2 7942   0.350   6.109   1.209
 2567SOL     OW 7943   1.428   5.816   1.116
 2567SOL    HW1 7944   1.446   5.731   1.157
 2567SOL    HW2 7945   1.379   5.865   1.182
 2568SOL     OW 7946   1.009   5.602   1.134
 2568SOL    HW1 7947   0.954   5.536   1.091
 2568SOL    HW2 7948   1.096   5.563   1.136
 2569SOL     OW 7949   0.812   6.879   0.286
 2569SOL    HW1 7950   0.769   6.797   0.313
 2569SOL    HW2 7951   0.827   6.927   0.367
 2570SOL     OW 7952   1.367   5.630   0.185
 2570SOL    HW1 7953   1.406   5.562   0.129
 2570SOL    HW2 7954   1.277   5.602   0.198
 2571SOL     OW 7955   1.295   6.049   0.677
 2571SOL    HW1 7956   1.244   6.130   0.680
 2571SOL    HW2 7957   1.290   6.014   0.766
 2572SOL     OW 7958   1.585   5.780   0.884
 2572SOL    HW1 7959   1.530   5.805   0.958
 2572SOL    HW2 7960   1.584   5.856   0.826
 2573SOL     OW 7961   0.078   6.650   0.290
 2573SOL    HW1 7962   0.161   6.603   0.294
 2573SOL    HW2 7963   0.011   6.581   0.298
 2574SOL     OW 7964   0.177   6.240   1.982
 2574SOL    HW1 7965   0.175   6.178   2.055
 2574SOL    HW2 7966   0.218   6.193   1.910
 2575SOL     OW 7967   0.227   5.859   2.850
 2575SOL    HW1 7968   0.276   5.823   2.924
 2575SOL    HW2 7969   0.136   5.842   2.871
 2576SOL     OW 7970   6.986   5.969   2.513
 2576SOL    HW1 7971   6.940   5.967   2.597
 2576SOL    HW2 7972   0.013   5.879   2.498
 2577SOL     OW 7973   0.569   6.877   3.040
 2577SOL    HW1 7974   0.500   6.894   2.975
 2577SOL    HW2 7975   0.526   6.893   3.124
 2578SOL     OW 7976   1.546   0.052   2.555
 2578SOL    HW1 7977   1.527   0.045   2.649
 2578SOL    HW2 7978   1.467   0.090   2.517
 2579SOL     OW 7979   1.131   6.283   2.555
 2579SOL    HW1 7980   1.179   6.365   2.544
 2579SOL    HW2 7981   1.084   6.293   2.638
 2580SOL     OW 7982   1.782   6.180   2.086
 2580SOL    HW1 7983   1.753   6.176   1.994
 2580SOL    HW2 7984   1.739   6.105   2.128
 2581SOL     OW 7985   0.771   6.755   2.892
 2581SOL    HW1 7986   0.705   6.789   2.952
 2581SOL    HW2 7987   0.755   6.800   2.809
 2582SOL     OW 7988   0.879   6.345   3.688
 2582SOL    HW1 7989   0.863   6.413   3.753
 2582SOL    HW2 7990   0.900   6.393   3.608
 2583SOL     OW 7991   0.689   6.580   2.504
 2583SOL    HW1 7992   0.755   6.574   2.573
 2583SOL    HW2 7993   0.618   6.631   2.543
 2584SOL     OW 7994   0.692   6.732   3.676
 2584SOL    HW1 7995   0.725   6.819   3.696
 2584SOL    HW2 7996   0.624   6.747   3.610
 2585SOL     OW 7997   0.349   0.004   2.906
 2585SOL    HW1 7998   0.281   6.956   2.858
 2585SOL    HW2 7999   0.393   0.056   2.840
 2586SOL     OW 8000   0.443   5.977   3.354
 2586SOL    HW1 8001   0.521   5.921   3.357
 2586SOL    HW2 8002   0.369   5.916   3.363
 2587SOL     OW 8003   1.603   6.026   2.607
 2587SOL    HW1 8004   1.531   6.043   2.547
 2587SOL    HW2 8005   1.603   6.102   2.666
 2588SOL     OW 8006   0.266   6.672   2.773
 2588SOL    HW1 8007   0.254   6.581   2.802
 2588SOL    HW2 8008   0.193   6.719   2.812
 2589SOL     OW 8009   0.574   6.563   2.003
 2589SOL    HW1 8010   0.619   6.614   1.935
 2589SOL    HW2 8011   0.613   6.592   2.085
 2590SOL     OW 8012   1.595   5.714   3.325
 2590SOL    HW1 8013   1.622   5.794   3.279
 2590SOL    HW2 8014   1.573   5.744   3.413
 2591SOL     OW 8015   0.136   6.196   2.436
 2591SOL    HW1 8016   0.067   6.134   2.459
 2591SOL    HW2 8017   0.121   6.271   2.493
 2592SOL     OW 8018   1.688   6.500   2.505
 2592SOL    HW1 8019   1.774   6.461   2.487
 2592SOL    HW2 8020   1.669   6.554   2.429
 2593SOL     OW 8021   1.650   6.689   2.287
 2593SOL    HW1 8022   1.736   6.686   2.244
 2593SOL    HW2 8023   1.663   6.745   2.363
 2594SOL     OW 8024   0.150   6.317   3.436
 2594SOL    HW1 8025   0.244   6.329   3.425
 2594SOL    HW2 8026   0.119   6.400   3.472
 2595SOL     OW 8027   1.305   6.812   3.297
 2595SOL    HW1 8028   1.339   6.752   3.231
 2595SOL    HW2 8029   1.367   6.807   3.370
 2596SOL     OW 8030   0.821   5.592   2.376
 2596SOL    HW1 8031   0.861   5.675   2.352
 2596SOL    HW2 8032   0.728   5.610   2.381
 2597SOL     OW 8033   0.213   6.553   3.127
 2597SOL    HW1 8034   0.288   6.497   3.104
 2597SOL    HW2 8035   0.143   6.525   3.069
 2598SOL     OW 8036   1.535   6.586   2.060
 2598SOL    HW1 8037   1.466   6.528   2.092
 2598SOL    HW2 8038   1.579   6.617   2.139
 2599SOL     OW 8039   0.361   5.837   3.701
 2599SOL    HW1 8040   0.398   5.919   3.734
 2599SOL    HW2 8041   0.267   5.846   3.716
 2600SOL     OW 8042   1.464   6.981   2.814
 2600SOL    HW1 8043   1.386   0.005   2.864
 2600SOL    HW2 8044   1.445   6.893   2.781
 2601SOL     OW 8045   0.587   6.294   2.127
 2601SOL    HW1 8046   0.594   6.380   2.086
 2601SOL    HW2 8047   0.528   6.307   2.201
 2602SOL     OW 8048   1.279   5.955   2.797
 2602SOL    HW1 8049   1.190   5.920   2.805
 2602SOL    HW2 8050   1.332   5.900   2.855
 2603SOL     OW 8051   0.792   6.202   3.309
 2603SOL    HW1 8052   0.766   6.175   3.398
 2603SOL    HW2 8053   0.759   6.132   3.252
 2604SOL     OW 8054   1.392   6.060   3.540
 2604SOL    HW1 8055   1.397   6.104   3.625
 2604SOL    HW2 8056   1.448   5.983   3.550
 2605SOL     OW 8057   0.952   6.473   3.451
 2605SOL    HW1 8058   1.008   6.405   3.414
 2605SOL    HW2 8059   0.902   6.506   3.377
 2606SOL     OW 8060   0.995   5.995   3.092
 2606SOL    HW1 8061   0.905   6.010   3.121
 2606SOL    HW2 8062   0.986   5.953   3.007
 2607SOL     OW 8063   1.053   6.285   2.285
 2607SOL    HW1 8064   1.072   6.279   2.379
 2607SOL    HW2 8065   0.969   6.240   2.274
 2608SOL     OW 8066   0.097   6.401   2.636
 2608SOL    HW1 8067   0.186   6.396   2.670
 2608SOL    HW2 8068   0.044   6.425   2.712
 2609SOL     OW 8069   0.899   5.936   2.059
 2609SOL    HW1 8070   0.940   5.999   1.999
 2609SOL    HW2 8071   0.902   5.853   2.012
 2610SOL     OW 8072   1.701   6.155   3.693
 2610SOL    HW1 8073   1.668   6.229   3.642
 2610SOL    HW2 8074   1.730   6.092   3.626
 2611SOL     OW 8075   1.393   6.721   2.417
 2611SOL    HW1 8076   1.468   6.714   2.358
 2611SOL    HW2 8077   1.348   6.801   2.388
 2612SOL     OW 8078   0.555   5.763   2.760
 2612SOL    HW1 8079   0.560   5.793   2.850
 2612SOL    HW2 8080   0.556   5.843   2.708
 2613SOL     OW 8081   1.800   6.633   2.742
 2613SOL    HW1 8082   1.748   6.627   2.661
 2613SOL    HW2 8083   1.735   6.642   2.811
 2614SOL     OW 8084   0.312   6.529   2.119
 2614SOL    HW1 8085   0.393   6.549   2.072
 2614SOL    HW2 8086   0.284   6.445   2.082
 2615SOL     OW 8087   1.482   6.335   2.583
 2615SOL    HW1 8088   1.482   6.297   2.670
 2615SOL    HW2 8089   1.560   6.391   2.581
 2616SOL     OW 8090   0.195   5.843   3.350
 2616SOL    HW1 8091   0.114   5.894   3.344
 2616SOL    HW2 8092   0.169   5.762   3.394
 2617SOL     OW 8093   1.643   6.967   1.952
 2617SOL    HW1 8094   1.611   0.056   1.966
 2617SOL    HW2 8095   1.564   6.915   1.937
 2618SOL     OW 8096   1.400   5.693   2.305
 2618SOL    HW1 8097   1.392   5.667   2.213
 2618SOL    HW2 8098   1.494   5.697   2.321
 2619SOL     OW 8099   0.403   6.272   2.335
 2619SOL    HW1 8100   0.426   6.181   2.356
 2619SOL    HW2 8101   0.310   6.278   2.355
 2620SOL     OW 8102   1.525   5.810   3.585
 2620SOL    HW1 8103   1.536   5.830   3.678
 2620SOL    HW2 8104   1.458   5.742   3.583
 2621SOL     OW 8105   0.651   5.701   1.963
 2621SOL    HW1 8106   0.706   5.625   1.983
 2621SOL    HW2 8107   0.594   5.671   1.892
 2622SOL     OW 8108   0.763   5.865   3.618
 2622SOL    HW1 8109   0.844   5.815   3.614
 2622SOL    HW2 8110   0.716   5.830   3.694
 2623SOL     OW 8111   1.336   6.174   3.296
 2623SOL    HW1 8112   1.368   6.143   3.381
 2623SOL    HW2 8113   1.375   6.261   3.286
 2624SOL     OW 8114   0.931   6.094   2.760
 2624SOL    HW1 8115   0.905   6.085   2.669
 2624SOL    HW2 8116   0.960   6.006   2.786
 2625SOL     OW 8117   0.553   5.648   2.359
 2625SOL    HW1 8118   0.472   5.647   2.410
 2625SOL    HW2 8119   0.544   5.724   2.301
 2626SOL     OW 8120   1.417   6.789   1.922
 2626SOL    HW1 8121   1.468   6.721   1.966
 2626SOL    HW2 8122   1.334   6.747   1.901
 2627SOL     OW 8123   0.286   5.633   2.057
 2627SOL    HW1 8124   0.339   5.704   2.021
 2627SOL    HW2 8125   0.349   5.570   2.092
 2628SOL     OW 8126   0.943   5.837   2.317
 2628SOL    HW1 8127   0.920   5.874   2.232
 2628SOL    HW2 8128   1.038   5.851   2.324
 2629SOL     OW 8129   1.080   6.272   3.319
 2629SOL    HW1 8130   1.015   6.202   3.323
 2629SOL    HW2 8131   1.164   6.227   3.313
 2630SOL     OW 8132   1.282   0.153   2.604
 2630SOL    HW1 8133   1.242   0.224   2.554
 2630SOL    HW2 8134   1.269   0.177   2.696
 2631SOL     OW 8135   0.472   6.708   2.603
 2631SOL    HW1 8136   0.403   6.701   2.669
 2631SOL    HW2 8137   0.424   6.713   2.520
 2632SOL     OW 8138   1.025   6.117   1.889
 2632SOL    HW1 8139   0.982   6.200   1.870
 2632SOL    HW2 8140   1.089   6.138   1.957
 2633SOL     OW 8141   0.070   6.139   3.235
 2633SOL    HW1 8142   0.163   6.132   3.213
 2633SOL    HW2 8143   0.067   6.205   3.305
 2634SOL     OW 8144   0.567   5.812   3.032
 2634SOL    HW1 8145   0.609   5.739   3.076
 2634SOL    HW2 8146   0.476   5.808   3.061
 2635SOL     OW 8147   0.865   6.042   2.500
 2635SOL    HW1 8148   0.820   6.099   2.437
 2635SOL    HW2 8149   0.889   5.964   2.450
 2636SOL     OW 8150   1.018   5.642   2.608
 2636SOL    HW1 8151   0.959   5.636   2.533
 2636SOL    HW2 8152   0.995   5.567   2.663
 2637SOL     OW 8153   1.436   6.729   2.717
 2637SOL    HW1 8154   1.362   6.667   2.721
 2637SOL    HW2 8155   1.456   6.737   2.624
 2638SOL     OW 8156   1.466   6.194   2.826
 2638SOL    HW1 8157   1.408   6.118   2.830
 2638SOL    HW2 8158   1.522   6.185   2.903
 2639SOL     OW 8159   1.840   6.391   2.247
 2639SOL    HW1 8160   1.898   6.343   2.307
 2639SOL    HW2 8161   1.817   6.327   2.179
 2640SOL     OW 8162   1.689   6.828   2.508
 2640SOL    HW1 8163   1.782   6.844   2.529
 2640SOL    HW2 8164   1.645   6.910   2.531
 2641SOL     OW 8165   1.393   6.159   1.933
 2641SOL    HW1 8166   1.332   6.137   2.003
 2641SOL    HW2 8167   1.478   6.129   1.965
 2642SOL     OW 8168   0.529   5.843   2.171
 2642SOL    HW1 8169   0.580   5.797   2.104
 2642SOL    HW2 8170   0.501   5.924   2.128
 2643SOL     OW 8171   1.753   6.810   3.430
 2643SOL    HW1 8172   1.829   6.764   3.465
 2643SOL    HW2 8173   1.776   6.903   3.433
 2644SOL     OW 8174   1.072   6.893   3.183
 2644SOL    HW1 8175   0.999   6.875   3.242
 2644SOL    HW2 8176   1.150   6.876   3.235
 2645SOL     OW 8177   1.143   6.762   2.956
 2645SOL    HW1 8178   1.109   6.808   3.032
 2645SOL    HW2 8179   1.077   6.775   2.888
 2646SOL     OW 8180   1.618   6.681   2.942
 2646SOL    HW1 8181   1.601   6.734   3.020
 2646SOL    HW2 8182   1.544   6.698   2.885
 2647SOL     OW 8183   0.918   5.678   3.252
 2647SOL    HW1 8184   0.941   5.660   3.161
 2647SOL    HW2 8185   0.997   5.717   3.289
 2648SOL     OW 8186   0.971   6.698   3.603
 2648SOL    HW1 8187   0.876   6.708   3.618
 2648SOL    HW2 8188   0.978   6.628   3.539
 2649SOL     OW 8189   0.704   6.642   2.229
 2649SOL    HW1 8190   0.696   6.630   2.323
 2649SOL    HW2 8191   0.783   6.593   2.205
 2650SOL     OW 8192   0.431   6.390   3.107
 2650SOL    HW1 8193   0.495   6.404   3.178
 2650SOL    HW2 8194   0.392   6.305   3.126
 2651SOL     OW 8195   1.263   5.959   3.144
 2651SOL    HW1 8196   1.295   6.037   3.189
 2651SOL    HW2 8197   1.172   5.980   3.122
 2652SOL     OW 8198   0.028   0.145   3.218
 2652SOL    HW1 8199   6.956   0.208   3.212
 2652SOL    HW2 8200   0.082   0.177   3.290
 2653SOL     OW 8201   0.336   6.705   2.356
 2653SOL    HW1 8202   0.392   6.763   2.305
 2653SOL    HW2 8203   0.326   6.627   2.301
 2654SOL     OW 8204   0.545   6.115   2.723
 2654SOL    HW1 8205   0.559   6.174   2.649
 2654SOL    HW2 8206   0.613   6.140   2.786
 2655SOL     OW 8207   1.577   6.205   2.346
 2655SOL    HW1 8208   1.528   6.250   2.416
 2655SOL    HW2 8209   1.625   6.276   2.302
 2656SOL     OW 8210   0.429   6.315   3.465
 2656SOL    HW1 8211   0.488   6.363   3.407
 2656SOL    HW2 8212   0.475   6.233   3.483
 2657SOL     OW 8213   1.610   6.367   3.550
 2657SOL    HW1 8214   1.523   6.407   3.544
 2657SOL    HW2 8215   1.661   6.409   3.481
 2658SOL     OW 8216   0.996   5.721   3.615
 2658SOL    HW1 8217   1.054   5.794   3.595
 2658SOL    HW2 8218   1.045   5.643   3.591
 2659SOL     OW 8219   0.501   5.620   3.613
 2659SOL    HW1 8220   0.451   5.572   3.546
 2659SOL    HW2 8221   0.447   5.697   3.631
 2660SOL     OW 8222   0.590   6.454   2.894
 2660SOL    HW1 8223   0.598   6.549   2.885
 2660SOL    HW2 8224   0.532   6.441   2.969
 2661SOL     OW 8225   1.349   6.440   2.883
 2661SOL    HW1 8226   1.261   6.428   2.846
 2661SOL    HW2 8227   1.393   6.356   2.869
 2662SOL     OW 8228   1.197   6.113   2.123
 2662SOL    HW1 8229   1.207   6.035   2.177
 2662SOL    HW2 8230   1.155   6.178   2.180
 2663SOL     OW 8231   0.310   5.780   3.106
 2663SOL    HW1 8232   0.269   5.809   3.188
 2663SOL    HW2 8233   0.291   5.686   3.102
 2664SOL     OW 8234   0.113   6.903   3.131
 2664SOL    HW1 8235   0.114   6.835   3.199
 2664SOL    HW2 8236   0.069   6.977   3.173
 2665SOL     OW 8237   0.722   6.211   2.913
 2665SOL    HW1 8238   0.798   6.200   2.857
 2665SOL    HW2 8239   0.693   6.301   2.897
 2666SOL     OW 8240   1.739   6.547   3.719
 2666SOL    HW1 8241   1.697   6.478   3.669
 2666SOL    HW2 8242   1.681   6.561   3.794
 2667SOL     OW 8243   0.305   5.647   2.482
 2667SOL    HW1 8244   0.284   5.738   2.504
 2667SOL    HW2 8245   0.314   5.604   2.567
 2668SOL     OW 8246   1.624   5.967   2.219
 2668SOL    HW1 8247   1.652   5.901   2.283
 2668SOL    HW2 8248   1.599   6.043   2.272
 2669SOL     OW 8249   1.029   6.342   2.819
 2669SOL    HW1 8250   1.020   6.359   2.913
 2669SOL    HW2 8251   1.003   6.251   2.808
 2670SOL     OW 8252   1.865   0.059   3.456
 2670SOL    HW1 8253   1.906   0.134   3.415
 2670SOL    HW2 8254   1.911   0.048   3.539
 2671SOL     OW 8255   0.368   6.501   3.664
 2671SOL    HW1 8256   0.443   6.515   3.721
 2671SOL    HW2 8257   0.397   6.434   3.602
 2672SOL     OW 8258   1.524   5.858   1.987
 2672SOL    HW1 8259   1.462   5.792   2.016
 2672SOL    HW2 8260   1.560   5.895   2.067
 2673SOL     OW 8261   1.284   6.408   1.885
 2673SOL    HW1 8262   1.327   6.323   1.893
 2673SOL    HW2 8263   1.317   6.444   1.803
 2674SOL     OW 8264   0.317   6.386   2.803
 2674SOL    HW1 8265   0.410   6.405   2.797
 2674SOL    HW2 8266   0.312   6.299   2.842
 2675SOL     OW 8267   0.326   6.108   2.879
 2675SOL    HW1 8268   0.290   6.021   2.862
 2675SOL    HW2 8269   0.403   6.113   2.822
 2676SOL     OW 8270   1.135   5.958   3.548
 2676SOL    HW1 8271   1.087   6.011   3.612
 2676SOL    HW2 8272   1.221   5.998   3.543
 2677SOL     OW 8273   1.160   5.782   3.334
 2677SOL    HW1 8274   1.149   5.845   3.406
 2677SOL    HW2 8275   1.203   5.832   3.265
 2678SOL     OW 8276   6.981   6.919   2.070
 2678SOL    HW1 8277   6.916   6.933   2.139
 2678SOL    HW2 8278   0.031   6.842   2.099
 2679SOL     OW 8279   0.972   6.370   3.084
 2679SOL    HW1 8280   1.031   6.352   3.157
 2679SOL    HW2 8281   0.890   6.327   3.110
 2680SOL     OW 8282   0.050   6.193   2.964
 2680SOL    HW1 8283   0.129   6.153   2.930
 2680SOL    HW2 8284   0.050   6.172   3.058
 2681SOL     OW 8285   0.211   6.096   3.581
 2681SOL    HW1 8286   0.285   6.054   3.537
 2681SOL    HW2 8287   0.198   6.178   3.534
 2682SOL     OW 8288   1.382   6.520   3.519
 2682SOL    HW1 8289   1.410   6.611   3.513
 2682SOL    HW2 8290   1.378   6.490   3.428
 2683SOL     OW 8291   0.817   6.156   2.228
 2683SOL    HW1 8292   0.825   6.081   2.169
 2683SOL    HW2 8293   0.741   6.204   2.194
 2684SOL     OW 8294   1.639   6.184   3.039
 2684SOL    HW1 8295   1.630   6.127   3.115
 2684SOL    HW2 8296   1.728   6.168   3.006
 2685SOL     OW 8297   0.716   6.031   3.115
 2685SOL    HW1 8298   0.660   5.957   3.089
 2685SOL    HW2 8299   0.707   6.093   3.043
 2686SOL     OW 8300   0.447   6.067   2.039
 2686SOL    HW1 8301   0.499   6.144   2.058
 2686SOL    HW2 8302   0.369   6.076   2.094
 2687SOL     OW 8303   0.188   6.708   3.342
 2687SOL    HW1 8304   0.166   6.643   3.409
 2687SOL    HW2 8305   0.199   6.657   3.261
 2688SOL     OW 8306   1.335   6.622   3.083
 2688SOL    HW1 8307   1.355   6.558   3.016
 2688SOL    HW2 8308   1.267   6.677   3.045
 2689SOL     OW 8309   1.319   6.446   2.161
 2689SOL    HW1 8310   1.248   6.413   2.217
 2689SOL    HW2 8311   1.288   6.431   2.072
 2690SOL     OW 8312   0.068   6.831   2.874
 2690SOL    HW1 8313   0.088   6.853   2.965
 2690SOL    HW2 8314   6.973   6.816   2.873
 2691SOL     OW 8315   1.724   5.745   2.365
 2691SOL    HW1 8316   1.793   5.728   2.301
 2691SOL    HW2 8317   1.707   5.660   2.405
 2692SOL     OW 8318   1.277   6.511   2.538
 2692SOL    HW1 8319   1.350   6.450   2.549
 2692SOL    HW2 8320   1.314   6.582   2.486
 2693SOL     OW 8321   0.812   6.841   3.280
 2693SOL    HW1 8322   0.785   6.879   3.364
 2693SOL    HW2 8323   0.744   6.869   3.219
 2694SOL     OW 8324   1.843   5.755   2.827
 2694SOL    HW1 8325   1.872   5.667   2.804
 2694SOL    HW2 8326   1.756   5.763   2.788
 2695SOL     OW 8327   0.263   5.901   2.576
 2695SOL    HW1 8328   0.197   5.968   2.562
 2695SOL    HW2 8329   0.260   5.884   2.671
 2696SOL     OW 8330   1.259   0.209   1.860
 2696SOL    HW1 8331   1.249   0.150   1.935
 2696SOL    HW2 8332   1.170   0.217   1.825
 2697SOL     OW 8333   0.827   6.578   3.231
 2697SOL    HW1 8334   0.878   6.563   3.152
 2697SOL    HW2 8335   0.828   6.672   3.244
 2698SOL     OW 8336   0.916   6.495   2.146
 2698SOL    HW1 8337   0.981   6.534   2.087
 2698SOL    HW2 8338   0.965   6.430   2.195
 2699SOL     OW 8339   0.397   6.893   3.347
 2699SOL    HW1 8340   0.341   6.966   3.321
 2699SOL    HW2 8341   0.336   6.819   3.357
 2700SOL     OW 8342   1.597   6.850   3.179
 2700SOL    HW1 8343   1.669   6.831   3.240
 2700SOL    HW2 8344   1.550   6.922   3.221
 2701SOL     OW 8345   1.065   6.708   2.594
 2701SOL    HW1 8346   0.989   6.658   2.621
 2701SOL    HW2 8347   1.127   6.642   2.562
 2702SOL     OW 8348   1.025   5.829   2.828
 2702SOL    HW1 8349   1.023   5.782   2.744
 2702SOL    HW2 8350   1.020   5.759   2.894
 2703SOL     OW 8351   1.729   5.977   3.243
 2703SOL    HW1 8352   1.801   6.040   3.242
 2703SOL    HW2 8353   1.758   5.907   3.184
 2704SOL     OW 8354   0.120   6.554   3.567
 2704SOL    HW1 8355   0.073   6.613   3.627
 2704SOL    HW2 8356   0.206   6.544   3.607
 2705SOL     OW 8357   0.677   5.782   3.361
 2705SOL    HW1 8358   0.761   5.759   3.322
 2705SOL    HW2 8359   0.699   5.813   3.449
 2706SOL     OW 8360   0.103   5.894   1.897
 2706SOL    HW1 8361   0.012   5.870   1.913
 2706SOL    HW2 8362   0.099   5.979   1.853
 2707SOL     OW 8363   1.428   6.438   3.262
 2707SOL    HW1 8364   1.380   6.499   3.207
 2707SOL    HW2 8365   1.517   6.439   3.227
 2708SOL     OW 8366   0.068   5.778   2.201
 2708SOL    HW1 8367   0.013   5.753   2.127
 2708SOL    HW2 8368   0.147   5.725   2.191
 2709SOL     OW 8369   0.622   6.413   3.299
 2709SOL    HW1 8370   0.679   6.488   3.279
 2709SOL    HW2 8371   0.681   6.339   3.306
 2710SOL     OW 8372   0.715   6.144   3.562
 2710SOL    HW1 8373   0.763   6.201   3.622
 2710SOL    HW2 8374   0.732   6.055   3.594
 2711SOL     OW 8375   1.486   6.775   3.505
 2711SOL    HW1 8376   1.480   6.799   3.597
 2711SOL    HW2 8377   1.579   6.789   3.483
 2712SOL     OW 8378   1.664   6.461   3.114
 2712SOL    HW1 8379   1.659   6.376   3.070
 2712SOL    HW2 8380   1.653   6.525   3.044
 2713SOL     OW 8381   1.216   5.906   2.318
 2713SOL    HW1 8382   1.277   5.832   2.313
 2713SOL    HW2 8383   1.245   5.956   2.394
 2714SOL     OW 8384   0.587   6.320   2.539
 2714SOL    HW1 8385   0.628   6.405   2.526
 2714SOL    HW2 8386   0.524   6.312   2.467
 2715SOL     OW 8387   1.755   5.949   3.516
 2715SOL    HW1 8388   1.742   5.965   3.422
 2715SOL    HW2 8389   1.681   5.892   3.540
 2716SOL     OW 8390   1.739   6.520   3.369
 2716SOL    HW1 8391   1.737   6.616   3.376
 2716SOL    HW2 8392   1.726   6.503   3.276
 2717SOL     OW 8393   0.870   6.555   2.716
 2717SOL    HW1 8394   0.920   6.480   2.751
 2717SOL    HW2 8395   0.841   6.602   2.794
 2718SOL     OW 8396   1.091   6.586   1.959
 2718SOL    HW1 8397   1.056   6.632   1.882
 2718SOL    HW2 8398   1.154   6.523   1.923
 2719SOL     OW 8399   0.250   6.886   3.710
 2719SOL    HW1 8400   0.155   6.871   3.714
 2719SOL    HW2 8401   0.270   6.939   3.786
 2720SOL     OW 8402   0.171   6.865   2.524
 2720SOL    HW1 8403   0.116   6.814   2.583
 2720SOL    HW2 8404   0.212   6.800   2.467
 2721SOL     OW 8405   0.704   6.972   3.495
 2721SOL    HW1 8406   0.613   6.978   3.525
 2721SOL    HW2 8407   0.724   0.059   3.461
 2722SOL     OW 8408   1.811   5.766   3.098
 2722SOL    HW1 8409   1.816   5.672   3.110
 2722SOL    HW2 8410   1.822   5.779   3.004
 2723SOL     OW 8411   0.452   6.016   2.397
 2723SOL    HW1 8412   0.478   5.945   2.337
 2723SOL    HW2 8413   0.401   5.972   2.465
 2724SOL     OW 8414   1.659   0.036   2.993
 2724SOL    HW1 8415   1.601   0.021   2.919
 2724SOL    HW2 8416   1.644   6.960   3.051
 2725SOL     OW 8417   0.332   6.140   3.159
 2725SOL    HW1 8418   0.384   6.083   3.215
 2725SOL    HW2 8419   0.349   6.109   3.070
 2726SOL     OW 8420   1.428   5.816   2.978
 2726SOL    HW1 8421   1.446   5.731   3.019
 2726SOL    HW2 8422   1.378   5.864   3.044
 2727SOL     OW 8423   1.009   5.602   2.996
 2727SOL    HW1 8424   0.954   5.536   2.953
 2727SOL    HW2 8425   1.096   5.563   2.998
 2728SOL     OW 8426   0.756   6.908   2.124
 2728SOL    HW1 8427   0.734   6.818   2.149
 2728SOL    HW2 8428   0.794   6.946   2.203
 2729SOL     OW 8429   1.360   5.636   2.036
 2729SOL    HW1 8430   1.395   5.565   1.983
 2729SOL    HW2 8431   1.270   5.610   2.055
 2730SOL     OW 8432   1.296   6.050   2.539
 2730SOL    HW1 8433   1.244   6.130   2.542
 2730SOL    HW2 8434   1.291   6.014   2.628
 2731SOL     OW 8435   1.584   5.779   2.746
 2731SOL    HW1 8436   1.529   5.805   2.820
 2731SOL    HW2 8437   1.584   5.856   2.688
 2732SOL     OW 8438   0.067   6.651   2.139
 2732SOL    HW1 8439   0.155   6.613   2.139
 2732SOL    HW2 8440   0.009   6.577   2.156
 2733SOL     OW 8441   0.177   6.240   3.843
 2733SOL    HW1 8442   0.175   6.178   3.916
 2733SOL    HW2 8443   0.219   6.192   3.772
 2734SOL     OW 8444   0.227   5.859   4.712
 2734SOL    HW1 8445   0.276   5.823   4.786
 2734SOL    HW2 8446   0.136   5.842   4.733
 2735SOL     OW 8447   6.986   5.969   4.375
 2735SOL    HW1 8448   6.940   5.967   4.459
 2735SOL    HW2 8449   0.013   5.879   4.360
 2736SOL     OW 8450   0.568   6.877   4.902
 2736SOL    HW1 8451   0.500   6.894   4.837
 2736SOL    HW2 8452   0.527   6.893   4.986
 2737SOL     OW 8453   1.546   0.052   4.417
 2737SOL    HW1 8454   1.528   0.045   4.511
 2737SOL    HW2 8455   1.466   0.090   4.380
 2738SOL     OW 8456   1.131   6.283   4.417
 2738SOL    HW1 8457   1.179   6.365   4.406
 2738SOL    HW2 8458   1.084   6.293   4.499
 2739SOL     OW 8459   1.782   6.180   3.948
 2739SOL    HW1 8460   1.753   6.176   3.856
 2739SOL    HW2 8461   1.739   6.105   3.989
 2740SOL     OW 8462   0.771   6.754   4.754
 2740SOL    HW1 8463   0.705   6.789   4.814
 2740SOL    HW2 8464   0.755   6.800   4.671
 2741SOL     OW 8465   0.878   6.345   5.550
 2741SOL    HW1 8466   0.865   6.413   5.616
 2741SOL    HW2 8467   0.900   6.393   5.470
 2742SOL     OW 8468   0.689   6.580   4.366
 2742SOL    HW1 8469   0.755   6.574   4.435
 2742SOL    HW2 8470   0.618   6.631   4.405
 2743SOL     OW 8471   0.692   6.732   5.538
 2743SOL    HW1 8472   0.726   6.819   5.559
 2743SOL    HW2 8473   0.625   6.748   5.472
 2744SOL     OW 8474   0.349   0.004   4.768
 2744SOL    HW1 8475   0.281   6.956   4.720
 2744SOL    HW2 8476   0.393   0.056   4.702
 2745SOL     OW 8477   0.443   5.977   5.216
 2745SOL    HW1 8478   0.520   5.921   5.220
 2745SOL    HW2 8479   0.369   5.916   5.225
 2746SOL     OW 8480   1.603   6.026   4.469
 2746SOL    HW1 8481   1.531   6.043   4.409
 2746SOL    HW2 8482   1.603   6.102   4.528
 2747SOL     OW 8483   0.266   6.672   4.635
 2747SOL    HW1 8484   0.254   6.581   4.664
 2747SOL    HW2 8485   0.193   6.719   4.674
 2748SOL     OW 8486   0.574   6.563   3.865
 2748SOL    HW1 8487   0.619   6.614   3.797
 2748SOL    HW2 8488   0.613   6.592   3.947
 2749SOL     OW 8489   1.595   5.714   5.187
 2749SOL    HW1 8490   1.622   5.794   5.141
 2749SOL    HW2 8491   1.573   5.744   5.276
 2750SOL     OW 8492   0.136   6.196   4.298
 2750SOL    HW1 8493   0.067   6.134   4.321
 2750SOL    HW2 8494   0.121   6.271   4.355
 2751SOL     OW 8495   1.688   6.500   4.367
 2751SOL    HW1 8496   1.774   6.461   4.349
 2751SOL    HW2 8497   1.669   6.554   4.291
 2752SOL     OW 8498   1.650   6.689   4.148
 2752SOL    HW1 8499   1.736   6.686   4.106
 2752SOL    HW2 8500   1.663   6.745   4.225
 2753SOL     OW 8501   0.150   6.317   5.299
 2753SOL    HW1 8502   0.244   6.329   5.287
 2753SOL    HW2 8503   0.119   6.400   5.334
 2754SOL     OW 8504   1.305   6.813   5.159
 2754SOL    HW1 8505   1.339   6.752   5.094
 2754SOL    HW2 8506   1.367   6.807   5.232
 2755SOL     OW 8507   0.821   5.592   4.238
 2755SOL    HW1 8508   0.861   5.675   4.214
 2755SOL    HW2 8509   0.728   5.610   4.243
 2756SOL     OW 8510   0.213   6.553   4.990
 2756SOL    HW1 8511   0.288   6.497   4.967
 2756SOL    HW2 8512   0.143   6.525   4.931
 2757SOL     OW 8513   1.535   6.586   3.922
 2757SOL    HW1 8514   1.466   6.528   3.954
 2757SOL    HW2 8515   1.579   6.617   4.001
 2758SOL     OW 8516   0.361   5.837   5.563
 2758SOL    HW1 8517   0.398   5.919   5.596
 2758SOL    HW2 8518   0.267   5.846   5.578
 2759SOL     OW 8519   1.464   6.981   4.676
 2759SOL    HW1 8520   1.387   0.005   4.727
 2759SOL    HW2 8521   1.444   6.893   4.643
 2760SOL     OW 8522   0.587   6.294   3.989
 2760SOL    HW1 8523   0.594   6.380   3.948
 2760SOL    HW2 8524   0.528   6.307   4.063
 2761SOL     OW 8525   1.279   5.955   4.659
 2761SOL    HW1 8526   1.190   5.920   4.667
 2761SOL    HW2 8527   1.332   5.900   4.717
 2762SOL     OW 8528   0.792   6.202   5.171
 2762SOL    HW1 8529   0.766   6.175   5.260
 2762SOL    HW2 8530   0.759   6.132   5.114
 2763SOL     OW 8531   1.392   6.060   5.402
 2763SOL    HW1 8532   1.397   6.104   5.487
 2763SOL    HW2 8533   1.449   5.983   5.412
 2764SOL     OW 8534   0.952   6.473   5.313
 2764SOL    HW1 8535   1.008   6.405   5.276
 2764SOL    HW2 8536   0.902   6.506   5.239
 2765SOL     OW 8537   0.995   5.995   4.955
 2765SOL    HW1 8538   0.905   6.010   4.983
 2765SOL    HW2 8539   0.986   5.953   4.869
 2766SOL     OW 8540   1.053   6.285   4.147
 2766SOL    HW1 8541   1.072   6.279   4.241
 2766SOL    HW2 8542   0.969   6.240   4.136
 2767SOL     OW 8543   0.097   6.401   4.498
 2767SOL    HW1 8544   0.186   6.396   4.532
 2767SOL    HW2 8545   0.044   6.425   4.574
 2768SOL     OW 8546   0.899   5.936   3.921
 2768SOL    HW1 8547   0.940   5.999   3.861
 2768SOL    HW2 8548   0.902   5.853   3.874
 2769SOL     OW 8549   1.701   6.154   5.555
 2769SOL    HW1 8550   1.668   6.229   5.504
 2769SOL    HW2 8551   1.730   6.092   5.488
 2770SOL     OW 8552   1.393   6.721   4.279
 2770SOL    HW1 8553   1.468   6.714   4.220
 2770SOL    HW2 8554   1.348   6.801   4.250
 2771SOL     OW 8555   0.555   5.763   4.622
 2771SOL    HW1 8556   0.561   5.793   4.712
 2771SOL    HW2 8557   0.556   5.843   4.570
 2772SOL     OW 8558   1.800   6.632   4.604
 2772SOL    HW1 8559   1.748   6.627   4.524
 2772SOL    HW2 8560   1.735   6.642   4.674
 2773SOL     OW 8561   0.312   6.529   3.981
 2773SOL    HW1 8562   0.393   6.549   3.934
 2773SOL    HW2 8563   0.284   6.445   3.944
 2774SOL     OW 8564   1.482   6.335   4.445
 2774SOL    HW1 8565   1.482   6.297   4.532
 2774SOL    HW2 8566   1.560   6.391   4.442
 2775SOL     OW 8567   0.195   5.843   5.212
 2775SOL    HW1 8568   0.114   5.894   5.206
 2775SOL    HW2 8569   0.169   5.762   5.256
 2776SOL     OW 8570   1.643   6.967   3.814
 2776SOL    HW1 8571   1.610   0.056   3.828
 2776SOL    HW2 8572   1.564   6.915   3.799
 2777SOL     OW 8573   1.400   5.693   4.167
 2777SOL    HW1 8574   1.392   5.667   4.075
 2777SOL    HW2 8575   1.494   5.698   4.183
 2778SOL     OW 8576   0.403   6.272   4.197
 2778SOL    HW1 8577   0.426   6.181   4.218
 2778SOL    HW2 8578   0.310   6.278   4.217
 2779SOL     OW 8579   1.525   5.810   5.447
 2779SOL    HW1 8580   1.537   5.830   5.540
 2779SOL    HW2 8581   1.457   5.743   5.445
 2780SOL     OW 8582   0.651   5.700   3.825
 2780SOL    HW1 8583   0.706   5.625   3.844
 2780SOL    HW2 8584   0.594   5.671   3.754
 2781SOL     OW 8585   0.762   5.865   5.480
 2781SOL    HW1 8586   0.844   5.815   5.476
 2781SOL    HW2 8587   0.716   5.830   5.556
 2782SOL     OW 8588   1.336   6.174   5.158
 2782SOL    HW1 8589   1.368   6.143   5.243
 2782SOL    HW2 8590   1.375   6.261   5.148
 2783SOL     OW 8591   0.931   6.094   4.622
 2783SOL    HW1 8592   0.905   6.085   4.531
 2783SOL    HW2 8593   0.960   6.006   4.648
 2784SOL     OW 8594   0.553   5.648   4.221
 2784SOL    HW1 8595   0.472   5.647   4.272
 2784SOL    HW2 8596   0.544   5.723   4.163
 2785SOL     OW 8597   1.417   6.789   3.784
 2785SOL    HW1 8598   1.468   6.721   3.828
 2785SOL    HW2 8599   1.334   6.747   3.763
 2786SOL     OW 8600   0.285   5.634   3.919
 2786SOL    HW1 8601   0.339   5.704   3.882
 2786SOL    HW2 8602   0.349   5.571   3.953
 2787SOL     OW 8603   0.943   5.837   4.179
 2787SOL    HW1 8604   0.920   5.874   4.094
 2787SOL    HW2 8605   1.038   5.851   4.186
 2788SOL     OW 8606   1.080   6.272   5.181
 2788SOL    HW1 8607   1.015   6.202   5.186
 2788SOL    HW2 8608   1.164   6.227   5.175
 2789SOL     OW 8609   1.283   0.153   4.465
 2789SOL    HW1 8610   1.242   0.225   4.417
 2789SOL    HW2 8611   1.269   0.175   4.557
 2790SOL     OW 8612   0.472   6.708   4.464
 2790SOL    HW1 8613   0.403   6.701   4.531
 2790SOL    HW2 8614   0.424   6.713   4.382
 2791SOL     OW 8615   1.025   6.117   3.751
 2791SOL    HW1 8616   0.982   6.200   3.732
 2791SOL    HW2 8617   1.089   6.138   3.819
 2792SOL     OW 8618   0.070   6.139   5.098
 2792SOL    HW1 8619   0.163   6.132   5.075
 2792SOL    HW2 8620   0.067   6.205   5.167
 2793SOL     OW 8621   0.567   5.812   4.894
 2793SOL    HW1 8622   0.609   5.739   4.939
 2793SOL    HW2 8623   0.476   5.808   4.923
 2794SOL     OW 8624   0.865   6.042   4.362
 2794SOL    HW1 8625   0.820   6.099   4.299
 2794SOL    HW2 8626   0.889   5.964   4.311
 2795SOL     OW 8627   1.019   5.641   4.470
 2795SOL    HW1 8628   0.959   5.636   4.395
 2795SOL    HW2 8629   0.995   5.567   4.525
 2796SOL     OW 8630   1.436   6.729   4.580
 2796SOL    HW1 8631   1.362   6.667   4.583
 2796SOL    HW2 8632   1.456   6.737   4.486
 2797SOL     OW 8633   1.466   6.194   4.688
 2797SOL    HW1 8634   1.408   6.118   4.693
 2797SOL    HW2 8635   1.522   6.185   4.765
 2798SOL     OW 8636   1.840   6.391   4.109
 2798SOL    HW1 8637   1.898   6.343   4.168
 2798SOL    HW2 8638   1.817   6.327   4.041
 2799SOL     OW 8639   1.689   6.828   4.370
 2799SOL    HW1 8640   1.781   6.843   4.391
 2799SOL    HW2 8641   1.645   6.910   4.393
 2800SOL     OW 8642   1.393   6.159   3.795
 2800SOL    HW1 8643   1.332   6.137   3.865
 2800SOL    HW2 8644   1.478   6.129   3.827
 2801SOL     OW 8645   0.529   5.843   4.033
 2801SOL    HW1 8646   0.580   5.797   3.966
 2801SOL    HW2 8647   0.501   5.924   3.990
 2802SOL     OW 8648   1.753   6.810   5.291
 2802SOL    HW1 8649   1.829   6.765   5.326
 2802SOL    HW2 8650   1.776   6.903   5.295
 2803SOL     OW 8651   1.072   6.893   5.045
 2803SOL    HW1 8652   0.999   6.875   5.104
 2803SOL    HW2 8653   1.150   6.876   5.097
 2804SOL     OW 8654   1.143   6.762   4.818
 2804SOL    HW1 8655   1.109   6.808   4.894
 2804SOL    HW2 8656   1.077   6.776   4.750
 2805SOL     OW 8657   1.618   6.681   4.805
 2805SOL    HW1 8658   1.601   6.734   4.882
 2805SOL    HW2 8659   1.544   6.698   4.747
 2806SOL     OW 8660   0.918   5.678   5.114
 2806SOL    HW1 8661   0.941   5.660   5.023
 2806SOL    HW2 8662   0.997   5.717   5.151
 2807SOL     OW 8663   0.970   6.699   5.465
 2807SOL    HW1 8664   0.876   6.708   5.480
 2807SOL    HW2 8665   0.978   6.628   5.401
 2808SOL     OW 8666   0.704   6.642   4.091
 2808SOL    HW1 8667   0.696   6.630   4.185
 2808SOL    HW2 8668   0.783   6.593   4.067
 2809SOL     OW 8669   0.431   6.390   4.969
 2809SOL    HW1 8670   0.495   6.404   5.040
 2809SOL    HW2 8671   0.392   6.305   4.988
 2810SOL     OW 8672   1.263   5.959   5.006
 2810SOL    HW1 8673   1.295   6.037   5.051
 2810SOL    HW2 8674   1.172   5.980   4.984
 2811SOL     OW 8675   0.028   0.144   5.080
 2811SOL    HW1 8676   6.956   0.207   5.074
 2811SOL    HW2 8677   0.082   0.177   5.152
 2812SOL     OW 8678   0.336   6.705   4.218
 2812SOL    HW1 8679   0.393   6.763   4.167
 2812SOL    HW2 8680   0.326   6.627   4.163
 2813SOL     OW 8681   0.545   6.115   4.585
 2813SOL    HW1 8682   0.559   6.174   4.511
 2813SOL    HW2 8683   0.613   6.140   4.648
 2814SOL     OW 8684   1.577   6.205   4.209
 2814SOL    HW1 8685   1.528   6.249   4.278
 2814SOL    HW2 8686   1.625   6.275   4.164
 2815SOL     OW 8687   0.429   6.315   5.328
 2815SOL    HW1 8688   0.488   6.363   5.269
 2815SOL    HW2 8689   0.475   6.233   5.346
 2816SOL     OW 8690   1.610   6.367   5.412
 2816SOL    HW1 8691   1.523   6.407   5.406
 2816SOL    HW2 8692   1.661   6.409   5.343
 2817SOL     OW 8693   0.996   5.722   5.478
 2817SOL    HW1 8694   1.054   5.794   5.457
 2817SOL    HW2 8695   1.045   5.643   5.453
 2818SOL     OW 8696   0.500   5.620   5.475
 2818SOL    HW1 8697   0.451   5.572   5.408
 2818SOL    HW2 8698   0.447   5.697   5.493
 2819SOL     OW 8699   0.590   6.454   4.756
 2819SOL    HW1 8700   0.598   6.549   4.747
 2819SOL    HW2 8701   0.532   6.441   4.831
 2820SOL     OW 8702   1.349   6.440   4.745
 2820SOL    HW1 8703   1.261   6.428   4.708
 2820SOL    HW2 8704   1.392   6.356   4.731
 2821SOL     OW 8705   1.198   6.113   3.985
 2821SOL    HW1 8706   1.207   6.035   4.039
 2821SOL    HW2 8707   1.156   6.178   4.042
 2822SOL     OW 8708   0.310   5.780   4.968
 2822SOL    HW1 8709   0.269   5.809   5.050
 2822SOL    HW2 8710   0.291   5.686   4.964
 2823SOL     OW 8711   0.113   6.903   4.993
 2823SOL    HW1 8712   0.114   6.835   5.061
 2823SOL    HW2 8713   0.069   6.977   5.035
 2824SOL     OW 8714   0.722   6.211   4.775
 2824SOL    HW1 8715   0.798   6.200   4.719
 2824SOL    HW2 8716   0.693   6.301   4.759
 2825SOL     OW 8717   1.739   6.547   5.582
 2825SOL    HW1 8718   1.696   6.477   5.531
 2825SOL    HW2 8719   1.681   6.561   5.656
 2826SOL     OW 8720   0.305   5.647   4.344
 2826SOL    HW1 8721   0.284   5.738   4.366
 2826SOL    HW2 8722   0.314   5.604   4.429
 2827SOL     OW 8723   1.624   5.967   4.081
 2827SOL    HW1 8724   1.652   5.901   4.145
 2827SOL    HW2 8725   1.599   6.043   4.134
 2828SOL     OW 8726   1.029   6.342   4.681
 2828SOL    HW1 8727   1.020   6.359   4.775
 2828SOL    HW2 8728   1.003   6.251   4.670
 2829SOL     OW 8729   1.864   0.059   5.318
 2829SOL    HW1 8730   1.906   0.135   5.276
 2829SOL    HW2 8731   1.910   0.049   5.401
 2830SOL     OW 8732   0.368   6.501   5.526
 2830SOL    HW1 8733   0.443   6.516   5.583
 2830SOL    HW2 8734   0.397   6.434   5.464
 2831SOL     OW 8735   1.524   5.858   3.849
 2831SOL    HW1 8736   1.462   5.791   3.878
 2831SOL    HW2 8737   1.560   5.895   3.929
 2832SOL     OW 8738   1.284   6.408   3.747
 2832SOL    HW1 8739   1.326   6.323   3.755
 2832SOL    HW2 8740   1.317   6.444   3.665
 2833SOL     OW 8741   0.317   6.386   4.665
 2833SOL    HW1 8742   0.410   6.405   4.659
 2833SOL    HW2 8743   0.312   6.299   4.704
 2834SOL     OW 8744   0.326   6.108   4.741
 2834SOL    HW1 8745   0.290   6.021   4.724
 2834SOL    HW2 8746   0.403   6.113   4.684
 2835SOL     OW 8747   1.135   5.958   5.411
 2835SOL    HW1 8748   1.087   6.011   5.474
 2835SOL    HW2 8749   1.221   5.998   5.405
 2836SOL     OW 8750   1.160   5.782   5.197
 2836SOL    HW1 8751   1.149   5.845   5.268
 2836SOL    HW2 8752   1.203   5.832   5.127
 2837SOL     OW 8753   6.981   6.919   3.932
 2837SOL    HW1 8754   6.916   6.933   4.001
 2837SOL    HW2 8755   0.031   6.842   3.961
 2838SOL     OW 8756   0.972   6.370   4.946
 2838SOL    HW1 8757   1.031   6.352   5.019
 2838SOL    HW2 8758   0.890   6.328   4.972
 2839SOL     OW 8759   0.050   6.193   4.827
 2839SOL    HW1 8760   0.129   6.153   4.792
 2839SOL    HW2 8761   0.051   6.172   4.920
 2840SOL     OW 8762   0.211   6.096   5.443
 2840SOL    HW1 8763   0.286   6.054   5.399
 2840SOL    HW2 8764   0.199   6.178   5.396
 2841SOL     OW 8765   1.382   6.520   5.380
 2841SOL    HW1 8766   1.410   6.611   5.375
 2841SOL    HW2 8767   1.379   6.490   5.289
 2842SOL     OW 8768   0.817   6.156   4.090
 2842SOL    HW1 8769   0.825   6.081   4.031
 2842SOL    HW2 8770   0.741   6.204   4.056
 2843SOL     OW 8771   1.639   6.184   4.901
 2843SOL    HW1 8772   1.630   6.127   4.977
 2843SOL    HW2 8773   1.728   6.168   4.868
 2844SOL     OW 8774   0.716   6.031   4.977
 2844SOL    HW1 8775   0.660   5.957   4.951
 2844SOL    HW2 8776   0.707   6.094   4.905
 2845SOL     OW 8777   0.447   6.067   3.901
 2845SOL    HW1 8778   0.499   6.145   3.920
 2845SOL    HW2 8779   0.369   6.076   3.957
 2846SOL     OW 8780   0.188   6.708   5.204
 2846SOL    HW1 8781   0.166   6.643   5.271
 2846SOL    HW2 8782   0.199   6.657   5.123
 2847SOL     OW 8783   1.336   6.622   4.945
 2847SOL    HW1 8784   1.355   6.558   4.877
 2847SOL    HW2 8785   1.267   6.677   4.907
 2848SOL     OW 8786   1.319   6.446   4.023
 2848SOL    HW1 8787   1.248   6.413   4.079
 2848SOL    HW2 8788   1.288   6.431   3.934
 2849SOL     OW 8789   0.068   6.831   4.736
 2849SOL    HW1 8790   0.088   6.853   4.827
 2849SOL    HW2 8791   6.973   6.816   4.735
 2850SOL     OW 8792   1.724   5.745   4.227
 2850SOL    HW1 8793   1.793   5.728   4.163
 2850SOL    HW2 8794   1.707   5.659   4.267
 2851SOL     OW 8795   1.277   6.511   4.400
 2851SOL    HW1 8796   1.350   6.450   4.411
 2851SOL    HW2 8797   1.314   6.582   4.348
 2852SOL     OW 8798   0.812   6.841   5.142
 2852SOL    HW1 8799   0.785   6.879   5.226
 2852SOL    HW2 8800   0.743   6.868   5.081
 2853SOL     OW 8801   1.843   5.755   4.689
 2853SOL    HW1 8802   1.872   5.667   4.665
 2853SOL    HW2 8803   1.756   5.763   4.650
 2854SOL     OW 8804   0.263   5.901   4.438
 2854SOL    HW1 8805   0.197   5.968   4.423
 2854SOL    HW2 8806   0.260   5.884   4.533
 2855SOL     OW 8807   1.257   0.209   3.723
 2855SOL    HW1 8808   1.252   0.149   3.797
 2855SOL    HW2 8809   1.168   0.213   3.688
 2856SOL     OW 8810   0.827   6.578   5.093
 2856SOL    HW1 8811   0.878   6.564   5.014
 2856SOL    HW2 8812   0.828   6.672   5.106
 2857SOL     OW 8813   0.917   6.495   4.008
 2857SOL    HW1 8814   0.981   6.535   3.949
 2857SOL    HW2 8815   0.966   6.430   4.057
 2858SOL     OW 8816   0.396   6.893   5.210
 2858SOL    HW1 8817   0.341   6.966   5.183
 2858SOL    HW2 8818   0.336   6.819   5.220
 2859SOL     OW 8819   1.597   6.850   5.041
 2859SOL    HW1 8820   1.668   6.831   5.102
 2859SOL    HW2 8821   1.550   6.923   5.082
 2860SOL     OW 8822   1.065   6.708   4.455
 2860SOL    HW1 8823   0.989   6.658   4.483
 2860SOL    HW2 8824   1.127   6.642   4.424
 2861SOL     OW 8825   1.025   5.829   4.690
 2861SOL    HW1 8826   1.023   5.782   4.606
 2861SOL    HW2 8827   1.020   5.760   4.756
 2862SOL     OW 8828   1.729   5.977   5.105
 2862SOL    HW1 8829   1.801   6.040   5.105
 2862SOL    HW2 8830   1.758   5.907   5.046
 2863SOL     OW 8831   0.120   6.555   5.429
 2863SOL    HW1 8832   0.073   6.613   5.489
 2863SOL    HW2 8833   0.206   6.544   5.469
 2864SOL     OW 8834   0.677   5.781   5.223
 2864SOL    HW1 8835   0.761   5.759   5.184
 2864SOL    HW2 8836   0.699   5.813   5.311
 2865SOL     OW 8837   0.103   5.895   3.760
 2865SOL    HW1 8838   0.011   5.871   3.774
 2865SOL    HW2 8839   0.099   5.979   3.714
 2866SOL     OW 8840   1.428   6.437   5.124
 2866SOL    HW1 8841   1.380   6.499   5.069
 2866SOL    HW2 8842   1.517   6.439   5.089
 2867SOL     OW 8843   0.068   5.778   4.063
 2867SOL    HW1 8844   0.013   5.753   3.989
 2867SOL    HW2 8845   0.147   5.726   4.053
 2868SOL     OW 8846   0.622   6.413   5.161
 2868SOL    HW1 8847   0.679   6.488   5.141
 2868SOL    HW2 8848   0.681   6.339   5.168
 2869SOL     OW 8849   0.715   6.144   5.424
 2869SOL    HW1 8850   0.763   6.202   5.484
 2869SOL    HW2 8851   0.732   6.056   5.456
 2870SOL     OW 8852   1.486   6.776   5.367
 2870SOL    HW1 8853   1.480   6.799   5.460
 2870SOL    HW2 8854   1.579   6.789   5.346
 2871SOL     OW 8855   1.664   6.461   4.976
 2871SOL    HW1 8856   1.659   6.376   4.932
 2871SOL    HW2 8857   1.654   6.525   4.906
 2872SOL     OW 8858   1.216   5.906   4.180
 2872SOL    HW1 8859   1.277   5.832   4.175
 2872SOL    HW2 8860   1.245   5.956   4.256
 2873SOL     OW 8861   0.587   6.320   4.401
 2873SOL    HW1 8862   0.628   6.405   4.388
 2873SOL    HW2 8863   0.524   6.312   4.329
 2874SOL     OW 8864   1.755   5.949   5.378
 2874SOL    HW1 8865   1.742   5.966   5.284
 2874SOL    HW2 8866   1.681   5.892   5.402
 2875SOL     OW 8867   1.739   6.520   5.231
 2875SOL    HW1 8868   1.737   6.616   5.238
 2875SOL    HW2 8869   1.726   6.503   5.138
 2876SOL     OW 8870   0.870   6.555   4.578
 2876SOL    HW1 8871   0.920   6.480   4.613
 2876SOL    HW2 8872   0.841   6.602   4.656
 2877SOL     OW 8873   1.091   6.586   3.821
 2877SOL    HW1 8874   1.056   6.632   3.744
 2877SOL    HW2 8875   1.154   6.523   3.785
 2878SOL     OW 8876   0.250   6.885   5.572
 2878SOL    HW1 8877   0.155   6.872   5.575
 2878SOL    HW2 8878   0.269   6.939   5.649
 2879SOL     OW 8879   0.171   6.865   4.386
 2879SOL    HW1 8880   0.116   6.814   4.445
 2879SOL    HW2 8881   0.212   6.800   4.329
 2880SOL     OW 8882   0.704   6.972   5.357
 2880SOL    HW1 8883   0.613   6.978   5.387
 2880SOL    HW2 8884   0.724   0.059   5.323
 2881SOL     OW 8885   1.811   5.767   4.960
 2881SOL    HW1 8886   1.816   5.672   4.972
 2881SOL    HW2 8887   1.823   5.779   4.866
 2882SOL     OW 8888   0.452   6.016   4.259
 2882SOL    HW1 8889   0.478   5.945   4.199
 2882SOL    HW2 8890   0.401   5.971   4.327
 2883SOL     OW 8891   1.660   0.035   4.855
 2883SOL    HW1 8892   1.601   0.021   4.780
 2883SOL    HW2 8893   1.644   6.960   4.912
 2884SOL     OW 8894   0.332   6.140   5.021
 2884SOL    HW1 8895   0.384   6.083   5.077
 2884SOL    HW2 8896   0.349   6.109   4.932
 2885SOL     OW 8897   1.428   5.816   4.841
 2885SOL    HW1 8898   1.446   5.732   4.882
 2885SOL    HW2 8899   1.378   5.865   4.906
 2886SOL     OW 8900   1.009   5.602   4.858
 2886SOL    HW1 8901   0.954   5.537   4.815
 2886SOL    HW2 8902   1.096   5.563   4.860
 2887SOL     OW 8903   0.756   6.908   3.986
 2887SOL    HW1 8904   0.734   6.818   4.011
 2887SOL    HW2 8905   0.794   6.946   4.065
 2888SOL     OW 8906   1.360   5.636   3.898
 2888SOL    HW1 8907   1.394   5.565   3.844
 2888SOL    HW2 8908   1.270   5.610   3.918
 2889SOL     OW 8909   1.296   6.050   4.401
 2889SOL    HW1 8910   1.244   6.130   4.404
 2889SOL    HW2 8911   1.291   6.014   4.490
 2890SOL     OW 8912   1.584   5.779   4.608
 2890SOL    HW1 8913   1.529   5.805   4.682
 2890SOL    HW2 8914   1.584   5.856   4.551
 2891SOL     OW 8915   0.067   6.652   4.001
 2891SOL    HW1 8916   0.155   6.613   4.001
 2891SOL    HW2 8917   0.009   6.577   4.018
 2892SOL     OW 8918   0.176   6.240   5.705
 2892SOL    HW1 8919   0.175   6.178   5.778
 2892SOL    HW2 8920   0.219   6.193   5.634
 2893SOL     OW 8921   0.223   5.866   6.572
 2893SOL    HW1 8922   0.276   5.828   6.642
 2893SOL    HW2 8923   0.133   5.844   6.595
 2894SOL     OW 8924   6.986   5.968   6.238
 2894SOL    HW1 8925   6.940   5.966   6.321
 2894SOL    HW2 8926   0.010   5.877   6.220
 2895SOL     OW 8927   0.561   6.888   6.766
 2895SOL    HW1 8928   0.491   6.912   6.704
 2895SOL    HW2 8929   0.516   6.878   6.849
 2896SOL     OW 8930   1.550   0.051   6.274
 2896SOL    HW1 8931   1.548   0.072   6.367
 2896SOL    HW2 8932   1.468   0.086   6.239
 2897SOL     OW 8933   1.129   6.280   6.281
 2897SOL    HW1 8934   1.176   6.363   6.268
 2897SOL    HW2 8935   1.081   6.293   6.363
 2898SOL     OW 8936   1.783   6.180   5.809
 2898SOL    HW1 8937   1.754   6.176   5.718
 2898SOL    HW2 8938   1.740   6.106   5.852
 2899SOL     OW 8939   0.750   6.737   6.624
 2899SOL    HW1 8940   0.690   6.783   6.683
 2899SOL    HW2 8941   0.754   6.793   6.546
 2900SOL     OW 8942   0.688   6.580   6.228
 2900SOL    HW1 8943   0.755   6.574   6.296
 2900SOL    HW2 8944   0.618   6.632   6.267
 2901SOL     OW 8945   0.347   0.009   6.628
 2901SOL    HW1 8946   0.280   6.959   6.582
 2901SOL    HW2 8947   0.390   0.060   6.560
 2902SOL     OW 8948   1.602   6.028   6.331
 2902SOL    HW1 8949   1.530   6.042   6.269
 2902SOL    HW2 8950   1.597   6.101   6.392
 2903SOL     OW 8951   0.264   6.670   6.492
 2903SOL    HW1 8952   0.254   6.580   6.524
 2903SOL    HW2 8953   0.191   6.718   6.531
 2904SOL     OW 8954   0.573   6.564   5.727
 2904SOL    HW1 8955   0.619   6.614   5.659
 2904SOL    HW2 8956   0.613   6.592   5.809
 2905SOL     OW 8957   0.136   6.194   6.158
 2905SOL    HW1 8958   0.067   6.133   6.181
 2905SOL    HW2 8959   0.122   6.270   6.216
 2906SOL     OW 8960   1.690   6.501   6.226
 2906SOL    HW1 8961   1.771   6.459   6.195
 2906SOL    HW2 8962   1.664   6.558   6.154
 2907SOL     OW 8963   1.650   6.689   6.009
 2907SOL    HW1 8964   1.735   6.685   5.966
 2907SOL    HW2 8965   1.664   6.746   6.085
 2908SOL     OW 8966   0.822   5.591   6.101
 2908SOL    HW1 8967   0.861   5.675   6.076
 2908SOL    HW2 8968   0.728   5.610   6.106
 2909SOL     OW 8969   0.198   6.518   6.841
 2909SOL    HW1 8970   0.285   6.481   6.827
 2909SOL    HW2 8971   0.150   6.497   6.760
 2910SOL     OW 8972   1.536   6.585   5.783
 2910SOL    HW1 8973   1.467   6.526   5.815
 2910SOL    HW2 8974   1.578   6.618   5.863
 2911SOL     OW 8975   1.454   6.963   6.541
 2911SOL    HW1 8976   1.390   0.017   6.587
 2911SOL    HW2 8977   1.405   6.922   6.470
 2912SOL     OW 8978   0.587   6.294   5.850
 2912SOL    HW1 8979   0.595   6.380   5.810
 2912SOL    HW2 8980   0.529   6.307   5.925
 2913SOL     OW 8981   1.277   5.951   6.519
 2913SOL    HW1 8982   1.188   5.917   6.528
 2913SOL    HW2 8983   1.329   5.899   6.580
 2914SOL     OW 8984   0.801   6.180   0.061
 2914SOL    HW1 8985   0.736   6.229   0.111
 2914SOL    HW2 8986   0.751   6.136   6.993
 2915SOL     OW 8987   0.996   5.981   6.801
 2915SOL    HW1 8988   0.916   6.024   6.832
 2915SOL    HW2 8989   0.969   5.933   6.722
 2916SOL     OW 8990   1.052   6.284   6.010
 2916SOL    HW1 8991   1.071   6.278   6.103
 2916SOL    HW2 8992   0.968   6.239   5.999
 2917SOL     OW 8993   0.101   6.398   6.358
 2917SOL    HW1 8994   0.191   6.397   6.392
 2917SOL    HW2 8995   0.048   6.426   6.432
 2918SOL     OW 8996   0.899   5.936   5.783
 2918SOL    HW1 8997   0.940   5.999   5.723
 2918SOL    HW2 8998   0.903   5.853   5.736
 2919SOL     OW 8999   1.377   6.714   6.111
 2919SOL    HW1 9000   1.463   6.710   6.070
 2919SOL    HW2 9001   1.356   6.807   6.113
 2920SOL     OW 9002   0.555   5.761   6.481
 2920SOL    HW1 9003   0.568   5.792   6.570
 2920SOL    HW2 9004   0.557   5.840   6.427
 2921SOL     OW 9005   1.805   6.636   6.456
 2921SOL    HW1 9006   1.755   6.624   6.375
 2921SOL    HW2 9007   1.739   6.637   6.525
 2922SOL     OW 9008   0.312   6.528   5.843
 2922SOL    HW1 9009   0.393   6.549   5.796
 2922SOL    HW2 9010   0.284   6.445   5.806
 2923SOL     OW 9011   1.481   6.336   6.304
 2923SOL    HW1 9012   1.481   6.296   6.391
 2923SOL    HW2 9013   1.559   6.392   6.304
 2924SOL     OW 9014   1.643   6.967   5.675
 2924SOL    HW1 9015   1.610   0.056   5.690
 2924SOL    HW2 9016   1.564   6.915   5.661
 2925SOL     OW 9017   1.399   5.692   6.029
 2925SOL    HW1 9018   1.392   5.667   5.937
 2925SOL    HW2 9019   1.493   5.698   6.045
 2926SOL     OW 9020   0.403   6.272   6.059
 2926SOL    HW1 9021   0.427   6.182   6.079
 2926SOL    HW2 9022   0.309   6.277   6.077
 2927SOL     OW 9023   0.650   5.700   5.688
 2927SOL    HW1 9024   0.707   5.625   5.706
 2927SOL    HW2 9025   0.594   5.671   5.616
 2928SOL     OW 9026   0.930   6.092   6.485
 2928SOL    HW1 9027   0.905   6.084   6.393
 2928SOL    HW2 9028   0.963   6.005   6.508
 2929SOL     OW 9029   0.554   5.648   6.083
 2929SOL    HW1 9030   0.472   5.647   6.133
 2929SOL    HW2 9031   0.545   5.724   6.025
 2930SOL     OW 9032   1.418   6.789   5.646
 2930SOL    HW1 9033   1.469   6.721   5.691
 2930SOL    HW2 9034   1.334   6.747   5.627
 2931SOL     OW 9035   0.286   5.634   5.781
 2931SOL    HW1 9036   0.339   5.704   5.744
 2931SOL    HW2 9037   0.349   5.571   5.815
 2932SOL     OW 9038   0.943   5.836   6.041
 2932SOL    HW1 9039   0.919   5.874   5.956
 2932SOL    HW2 9040   1.037   5.851   6.048
 2933SOL     OW 9041   1.287   0.146   6.346
 2933SOL    HW1 9042   1.224   0.176   6.280
 2933SOL    HW2 9043   1.275   0.206   6.419
 2934SOL     OW 9044   0.471   6.710   6.325
 2934SOL    HW1 9045   0.403   6.702   6.391
 2934SOL    HW2 9046   0.424   6.714   6.242
 2935SOL     OW 9047   1.025   6.117   5.613
 2935SOL    HW1 9048   0.982   6.200   5.594
 2935SOL    HW2 9049   1.089   6.138   5.681
 2936SOL     OW 9050   0.583   5.811   6.751
 2936SOL    HW1 9051   0.623   5.733   6.789
 2936SOL    HW2 9052   0.491   5.807   6.779
 2937SOL     OW 9053   0.863   6.041   6.224
 2937SOL    HW1 9054   0.821   6.098   6.160
 2937SOL    HW2 9055   0.888   5.964   6.174
 2938SOL     OW 9056   1.020   5.637   6.327
 2938SOL    HW1 9057   0.959   5.632   6.253
 2938SOL    HW2 9058   0.996   5.564   6.384
 2939SOL     OW 9059   1.466   6.193   6.545
 2939SOL    HW1 9060   1.407   6.118   6.555
 2939SOL    HW2 9061   1.525   6.187   6.621
 2940SOL     OW 9062   1.841   6.391   5.973
 2940SOL    HW1 9063   1.899   6.342   6.031
 2940SOL    HW2 9064   1.818   6.328   5.904
 2941SOL     OW 9065   1.697   6.831   6.225
 2941SOL    HW1 9066   1.787   6.849   6.251
 2941SOL    HW2 9067   1.648   6.909   6.253
 2942SOL     OW 9068   1.393   6.160   5.657
 2942SOL    HW1 9069   1.331   6.138   5.727
 2942SOL    HW2 9070   1.478   6.131   5.690
 2943SOL     OW 9071   0.529   5.843   5.895
 2943SOL    HW1 9072   0.580   5.797   5.828
 2943SOL    HW2 9073   0.501   5.924   5.852
 2944SOL     OW 9074   1.749   6.781   0.162
 2944SOL    HW1 9075   1.831   6.770   0.210
 2944SOL    HW2 9076   1.740   6.875   0.151
 2945SOL     OW 9077   1.061   6.897   6.933
 2945SOL    HW1 9078   0.972   6.878   6.962
 2945SOL    HW2 9079   1.117   6.863   0.002
 2946SOL     OW 9080   1.137   6.763   6.700
 2946SOL    HW1 9081   1.106   6.820   6.769
 2946SOL    HW2 9082   1.094   6.795   6.621
 2947SOL     OW 9083   1.617   6.653   6.652
 2947SOL    HW1 9084   1.620   6.718   6.723
 2947SOL    HW2 9085   1.524   6.645   6.630
 2948SOL     OW 9086   0.704   6.642   5.953
 2948SOL    HW1 9087   0.696   6.630   6.048
 2948SOL    HW2 9088   0.783   6.592   5.929
 2949SOL     OW 9089   0.443   6.390   6.850
 2949SOL    HW1 9090   0.488   6.414   6.931
 2949SOL    HW2 9091   0.406   6.304   6.868
 2950SOL     OW 9092   1.264   5.977   6.857
 2950SOL    HW1 9093   1.289   6.051   6.912
 2950SOL    HW2 9094   1.173   5.995   6.834
 2951SOL     OW 9095   0.056   0.138   6.971
 2951SOL    HW1 9096   6.968   0.156   0.004
 2951SOL    HW2 9097   0.108   0.121   0.050
 2952SOL     OW 9098   0.336   6.705   6.079
 2952SOL    HW1 9099   0.395   6.762   6.028
 2952SOL    HW2 9100   0.326   6.627   6.025
 2953SOL     OW 9101   0.544   6.118   6.448
 2953SOL    HW1 9102   0.558   6.176   6.373
 2953SOL    HW2 9103   0.614   6.140   6.508
 2954SOL     OW 9104   1.577   6.205   6.070
 2954SOL    HW1 9105   1.527   6.249   6.140
 2954SOL    HW2 9106   1.619   6.277   6.023
 2955SOL     OW 9107   0.590   6.454   6.621
 2955SOL    HW1 9108   0.610   6.548   6.615
 2955SOL    HW2 9109   0.539   6.446   6.702
 2956SOL     OW 9110   1.357   6.443   6.611
 2956SOL    HW1 9111   1.280   6.446   6.555
 2956SOL    HW2 9112   1.396   6.357   6.594
 2957SOL     OW 9113   1.197   6.113   5.846
 2957SOL    HW1 9114   1.206   6.035   5.902
 2957SOL    HW2 9115   1.156   6.178   5.903
 2958SOL     OW 9116   0.325   5.788   6.824
 2958SOL    HW1 9117   0.307   5.795   6.918
 2958SOL    HW2 9118   0.299   5.698   6.802
 2959SOL     OW 9119   0.076   6.892   6.852
 2959SOL    HW1 9120   0.117   6.833   6.914
 2959SOL    HW2 9121   0.067   6.975   6.899
 2960SOL     OW 9122   0.723   6.209   6.636
 2960SOL    HW1 9123   0.800   6.196   6.582
 2960SOL    HW2 9124   0.696   6.300   6.619
 2961SOL     OW 9125   0.305   5.647   6.204
 2961SOL    HW1 9126   0.284   5.738   6.226
 2961SOL    HW2 9127   0.314   5.604   6.289
 2962SOL     OW 9128   1.624   5.968   5.943
 2962SOL    HW1 9129   1.652   5.902   6.007
 2962SOL    HW2 9130   1.599   6.043   5.996
 2963SOL     OW 9131   1.021   6.344   6.550
 2963SOL    HW1 9132   1.023   6.358   6.644
 2963SOL    HW2 9133   1.000   6.251   6.540
 2964SOL     OW 9134   1.525   5.857   5.711
 2964SOL    HW1 9135   1.463   5.791   5.741
 2964SOL    HW2 9136   1.561   5.895   5.791
 2965SOL     OW 9137   1.280   6.407   5.606
 2965SOL    HW1 9138   1.325   6.322   5.615
 2965SOL    HW2 9139   1.315   6.444   5.525
 2966SOL     OW 9140   0.316   6.389   6.537
 2966SOL    HW1 9141   0.409   6.410   6.528
 2966SOL    HW2 9142   0.314   6.298   6.568
 2967SOL     OW 9143   0.329   6.111   6.606
 2967SOL    HW1 9144   0.292   6.025   6.587
 2967SOL    HW2 9145   0.407   6.117   6.550
 2968SOL     OW 9146   1.145   5.828   0.062
 2968SOL    HW1 9147   1.215   5.852   0.123
 2968SOL    HW2 9148   1.173   5.864   6.977
 2969SOL     OW 9149   6.981   6.919   5.794
 2969SOL    HW1 9150   6.916   6.932   5.863
 2969SOL    HW2 9151   0.031   6.842   5.823
 2970SOL     OW 9152   0.992   6.368   6.827
 2970SOL    HW1 9153   1.051   6.318   6.883
 2970SOL    HW2 9154   0.906   6.356   6.868
 2971SOL     OW 9155   0.057   6.197   6.698
 2971SOL    HW1 9156   0.104   6.150   6.628
 2971SOL    HW2 9157   0.101   6.169   6.779
 2972SOL     OW 9158   0.815   6.154   5.953
 2972SOL    HW1 9159   0.825   6.080   5.893
 2972SOL    HW2 9160   0.740   6.203   5.919
 2973SOL     OW 9161   1.648   6.192   6.750
 2973SOL    HW1 9162   1.636   6.138   6.828
 2973SOL    HW2 9163   1.740   6.181   6.727
 2974SOL     OW 9164   0.684   6.051   6.852
 2974SOL    HW1 9165   0.651   5.968   6.819
 2974SOL    HW2 9166   0.690   6.107   6.775
 2975SOL     OW 9167   0.447   6.067   5.763
 2975SOL    HW1 9168   0.499   6.144   5.782
 2975SOL    HW2 9169   0.369   6.076   5.818
 2976SOL     OW 9170   0.192   6.716   0.026
 2976SOL    HW1 9171   0.162   6.678   0.108
 2976SOL    HW2 9172   0.191   6.643   6.964
 2977SOL     OW 9173   1.322   6.609   6.824
 2977SOL    HW1 9174   1.345   6.544   6.757
 2977SOL    HW2 9175   1.256   6.664   6.783
 2978SOL     OW 9176   1.325   6.440   5.882
 2978SOL    HW1 9177   1.253   6.419   5.942
 2978SOL    HW2 9178   1.287   6.426   5.795
 2979SOL     OW 9179   0.066   6.827   6.592
 2979SOL    HW1 9180   0.074   6.848   6.685
 2979SOL    HW2 9181   6.972   6.826   6.575
 2980SOL     OW 9182   1.725   5.745   6.090
 2980SOL    HW1 9183   1.793   5.729   6.026
 2980SOL    HW2 9184   1.707   5.660   6.129
 2981SOL     OW 9185   1.272   6.508   6.251
 2981SOL    HW1 9186   1.348   6.452   6.265
 2981SOL    HW2 9187   1.305   6.580   6.198
 2982SOL     OW 9188   0.806   6.839   0.015
 2982SOL    HW1 9189   0.808   6.852   0.109
 2982SOL    HW2 9190   0.722   6.876   6.987
 2983SOL     OW 9191   1.842   5.759   6.562
 2983SOL    HW1 9192   1.871   5.671   6.536
 2983SOL    HW2 9193   1.755   5.768   6.523
 2984SOL     OW 9194   0.264   5.901   6.297
 2984SOL    HW1 9195   0.195   5.966   6.279
 2984SOL    HW2 9196   0.259   5.886   6.391
 2985SOL     OW 9197   1.257   0.209   5.587
 2985SOL    HW1 9198   1.252   0.147   5.660
 2985SOL    HW2 9199   1.167   0.211   5.553
 2986SOL     OW 9200   0.787   6.578   6.939
 2986SOL    HW1 9201   0.828   6.570   6.853
 2986SOL    HW2 9202   0.803   6.668   6.966
 2987SOL     OW 9203   0.916   6.494   5.869
 2987SOL    HW1 9204   0.981   6.534   5.811
 2987SOL    HW2 9205   0.965   6.429   5.919
 2988SOL     OW 9206   0.407   6.889   6.991
 2988SOL    HW1 9207   0.383   6.961   0.048
 2988SOL    HW2 9208   0.338   6.824   0.003
 2989SOL     OW 9209   1.617   6.824   6.863
 2989SOL    HW1 9210   1.693   6.842   6.918
 2989SOL    HW2 9211   1.544   6.814   6.924
 2990SOL     OW 9212   1.062   6.713   6.318
 2990SOL    HW1 9213   0.988   6.659   6.346
 2990SOL    HW2 9214   1.127   6.651   6.285
 2991SOL     OW 9215   1.022   5.826   6.543
 2991SOL    HW1 9216   1.021   5.779   6.460
 2991SOL    HW2 9217   1.020   5.757   6.610
 2992SOL     OW 9218   1.697   6.012   6.951
 2992SOL    HW1 9219   1.762   6.009   0.021
 2992SOL    HW2 9220   1.695   5.922   6.916
 2993SOL     OW 9221   0.679   5.767   0.080
 2993SOL    HW1 9222   0.768   5.732   0.078
 2993SOL    HW2 9223   0.687   5.852   0.122
 2994SOL     OW 9224   0.103   5.895   5.622
 2994SOL    HW1 9225   0.011   5.871   5.636
 2994SOL    HW2 9226   0.099   5.979   5.576
 2995SOL     OW 9227   0.068   5.779   5.926
 2995SOL    HW1 9228   0.013   5.753   5.851
 2995SOL    HW2 9229   0.147   5.726   5.916
 2996SOL     OW 9230   1.471   6.859   0.331
 2996SOL    HW1 9231   1.519   6.780   0.355
 2996SOL    HW2 9232   1.463   6.855   0.236
 2997SOL     OW 9233   1.706   6.457   6.832
 2997SOL    HW1 9234   1.670   6.373   6.802
 2997SOL    HW2 9235   1.673   6.521   6.768
 2998SOL     OW 9236   1.216   5.905   6.042
 2998SOL    HW1 9237   1.277   5.832   6.037
 2998SOL    HW2 9238   1.245   5.956   6.118
 2999SOL     OW 9239   0.584   6.321   6.264
 2999SOL    HW1 9240   0.627   6.406   6.251
 2999SOL    HW2 9241   0.524   6.313   6.190
 3000SOL     OW 9242   1.785   6.504   0.090
 3000SOL    HW1 9243   1.758   6.595   0.106
 3000SOL    HW2 9244   1.756   6.486   0.001
 3001SOL     OW 9245   0.870   6.554   6.441
 3001SOL    HW1 9246   0.920   6.480   6.475
 3001SOL    HW2 9247   0.836   6.599   6.519
 3002SOL     OW 9248   1.090   6.586   5.682
 3002SOL    HW1 9249   1.056   6.632   5.606
 3002SOL    HW2 9250   1.153   6.522   5.646
 3003SOL     OW 9251   0.172   6.866   6.246
 3003SOL    HW1 9252   0.117   6.813   6.304
 3003SOL    HW2 9253   0.213   6.802   6.187
 3004SOL     OW 9254   1.811   5.754   6.838
 3004SOL    HW1 9255   1.795   5.659   6.833
 3004SOL    HW2 9256   1.823   5.781   6.747
 3005SOL     OW 9257   0.453   6.016   6.120
 3005SOL    HW1 9258   0.480   5.946   6.060
 3005SOL    HW2 9259   0.401   5.972   6.187
 3006SOL     OW 9260   1.646   0.047   6.718
 3006SOL    HW1 9261   1.599   0.030   6.637
 3006SOL    HW2 9262   1.640   6.964   6.767
 3007SOL     OW 9263   0.310   6.126   6.881
 3007SOL    HW1 9264   0.374   6.065   6.918
 3007SOL    HW2 9265   0.323   6.119   6.786
 3008SOL     OW 9266   1.432   5.824   6.705
 3008SOL    HW1 9267   1.454   5.745   6.755
 3008SOL    HW2 9268   1.381   5.878   6.766
 3009SOL     OW 9269   1.015   5.600   6.703
 3009SOL    HW1 9270   0.964   5.532   6.659
 3009SOL    HW2 9271   1.101   5.559   6.718
 3010SOL     OW 9272   0.755   6.907   5.847
 3010SOL    HW1 9273   0.734   6.817   5.872
 3010SOL    HW2 9274   0.794   6.945   5.925
 3011SOL     OW 9275   1.359   5.636   5.760
 3011SOL    HW1 9276   1.394   5.566   5.706
 3011SOL    HW2 9277   1.269   5.610   5.780
 3012SOL     OW 9278   1.296   6.049   6.263
 3012SOL    HW1 9279   1.244   6.129   6.266
 3012SOL    HW2 9280   1.290   6.012   6.351
 3013SOL     OW 9281   1.585   5.782   6.474
 3013SOL    HW1 9282   1.528   5.808   6.546
 3013SOL    HW2 9283   1.584   5.857   6.414
 3014SOL     OW 9284   0.067   6.651   5.864
 3014SOL    HW1 9285   0.155   6.613   5.863
 3014SOL    HW2 9286   0.009   6.577   5.881
 3015SOL     OW 9287   2.082   0.651   0.140
 3015SOL    HW1 9288   1.992   0.629   0.165
 3015SOL    HW2 9289   2.087   0.629   0.047
 3016SOL     OW 9290   2.086   0.306   0.993
 3016SOL    HW1 9291   2.123   0.263   1.071
 3016SOL    HW2 9292   2.009   0.254   0.972
 3017SOL     OW 9293   1.866   0.393   0.633
 3017SOL    HW1 9294   1.785   0.417   0.679
 3017SOL    HW2 9295   1.840   0.322   0.575
 3018SOL     OW 9296   2.431   1.299   1.186
 3018SOL    HW1 9297   2.346   1.305   1.142
 3018SOL    HW2 9298   2.448   1.388   1.217
 3019SOL     OW 9299   3.434   1.513   0.705
 3019SOL    HW1 9300   3.391   1.490   0.788
 3019SOL    HW2 9301   3.363   1.514   0.641
 3020SOL     OW 9302   2.995   0.699   0.694
 3020SOL    HW1 9303   3.045   0.780   0.683
 3020SOL    HW2 9304   2.947   0.712   0.776
 3021SOL     OW 9305   3.653   0.587   0.203
 3021SOL    HW1 9306   3.586   0.629   0.149
 3021SOL    HW2 9307   3.605   0.521   0.253
 3022SOL     OW 9308   2.604   1.136   1.049
 3022SOL    HW1 9309   2.540   1.175   1.108
 3022SOL    HW2 9310   2.645   1.211   1.005
 3023SOL     OW 9311   2.738   0.760   1.824
 3023SOL    HW1 9312   2.724   0.831   1.887
 3023SOL    HW2 9313   2.760   0.805   1.742
 3024SOL     OW 9314   2.548   0.994   0.645
 3024SOL    HW1 9315   2.614   0.989   0.713
 3024SOL    HW2 9316   2.480   1.050   0.681
 3025SOL     OW 9317   2.576   1.149   1.822
 3025SOL    HW1 9318   2.625   1.226   1.852
 3025SOL    HW2 9319   2.497   1.185   1.781
 3026SOL     OW 9320   2.194   1.415   1.067
 3026SOL    HW1 9321   2.120   1.374   1.022
 3026SOL    HW2 9322   2.237   1.467   0.999
 3027SOL     OW 9323   3.320   1.502   1.364
 3027SOL    HW1 9324   3.375   1.581   1.372
 3027SOL    HW2 9325   3.251   1.514   1.429
 3028SOL     OW 9326   2.304   0.398   1.481
 3028SOL    HW1 9327   2.387   0.351   1.490
 3028SOL    HW2 9328   2.237   0.331   1.487
 3029SOL     OW 9329   3.473   0.460   0.731
 3029SOL    HW1 9330   3.421   0.487   0.656
 3029SOL    HW2 9331   3.470   0.535   0.791
 3030SOL     OW 9332   2.082   1.721   0.472
 3030SOL    HW1 9333   2.104   1.796   0.527
 3030SOL    HW2 9334   2.165   1.695   0.432
 3031SOL     OW 9335   3.000   1.343   1.695
 3031SOL    HW1 9336   3.041   1.335   1.781
 3031SOL    HW2 9337   2.948   1.263   1.686
 3032SOL     OW 9338   2.085   1.445   0.539
 3032SOL    HW1 9339   2.064   1.538   0.548
 3032SOL    HW2 9340   2.030   1.402   0.604
 3033SOL     OW 9341   2.127   1.093   0.887
 3033SOL    HW1 9342   2.125   1.004   0.923
 3033SOL    HW2 9343   2.070   1.144   0.944
 3034SOL     OW 9344   2.461   1.793   1.426
 3034SOL    HW1 9345   2.380   1.776   1.475
 3034SOL    HW2 9346   2.487   1.881   1.454
 3035SOL     OW 9347   2.443   0.963   0.148
 3035SOL    HW1 9348   2.501   0.985   0.075
 3035SOL    HW2 9349   2.479   1.011   0.223
 3036SOL     OW 9350   3.435   0.127   1.439
 3036SOL    HW1 9351   3.461   0.216   1.414
 3036SOL    HW2 9352   3.445   0.125   1.534
 3037SOL     OW 9353   1.984   0.651   0.558
 3037SOL    HW1 9354   1.955   0.563   0.582
 3037SOL    HW2 9355   1.975   0.702   0.639
 3038SOL     OW 9356   3.701   1.761   0.342
 3038SOL    HW1 9357   3.770   1.735   0.402
 3038SOL    HW2 9358   3.708   1.857   0.337
 3039SOL     OW 9359   3.551   0.922   0.644
 3039SOL    HW1 9360   3.629   0.877   0.610
 3039SOL    HW2 9361   3.532   0.989   0.578
 3040SOL     OW 9362   1.983   0.751   1.580
 3040SOL    HW1 9363   2.072   0.787   1.583
 3040SOL    HW2 9364   1.926   0.828   1.577
 3041SOL     OW 9365   2.478   1.388   0.742
 3041SOL    HW1 9366   2.434   1.304   0.750
 3041SOL    HW2 9367   2.468   1.413   0.650
 3042SOL     OW 9368   3.145   1.234   1.421
 3042SOL    HW1 9369   3.174   1.166   1.360
 3042SOL    HW2 9370   3.206   1.229   1.494
 3043SOL     OW 9371   2.688   0.026   0.525
 3043SOL    HW1 9372   2.722   0.113   0.505
 3043SOL    HW2 9373   2.593   0.038   0.525
 3044SOL     OW 9374   2.049   0.959   1.283
 3044SOL    HW1 9375   2.135   0.922   1.267
 3044SOL    HW2 9376   1.992   0.918   1.218
 3045SOL     OW 9377   3.355   1.015   0.201
 3045SOL    HW1 9378   3.300   0.952   0.248
 3045SOL    HW2 9379   3.433   0.966   0.176
 3046SOL     OW 9380   3.045   1.815   1.628
 3046SOL    HW1 9381   3.049   1.877   1.555
 3046SOL    HW2 9382   3.063   1.730   1.588
 3047SOL     OW 9383   2.182   0.269   1.783
 3047SOL    HW1 9384   2.239   0.332   1.828
 3047SOL    HW2 9385   2.102   0.267   1.836
 3048SOL     OW 9386   3.328   1.423   0.944
 3048SOL    HW1 9387   3.263   1.438   1.012
 3048SOL    HW2 9388   3.318   1.331   0.921
 3049SOL     OW 9389   3.509   1.759   0.583
 3049SOL    HW1 9390   3.487   1.729   0.495
 3049SOL    HW2 9391   3.496   1.682   0.639
 3050SOL     OW 9392   2.461   0.711   0.264
 3050SOL    HW1 9393   2.463   0.800   0.228
 3050SOL    HW2 9394   2.399   0.717   0.337
 3051SOL     OW 9395   3.145   0.374   0.951
 3051SOL    HW1 9396   3.053   0.350   0.958
 3051SOL    HW2 9397   3.189   0.321   1.018
 3052SOL     OW 9398   3.434   1.678   0.321
 3052SOL    HW1 9399   3.526   1.706   0.313
 3052SOL    HW2 9400   3.402   1.676   0.231
 3053SOL     OW 9401   2.655   0.622   1.452
 3053SOL    HW1 9402   2.628   0.592   1.539
 3053SOL    HW2 9403   2.622   0.554   1.393
 3054SOL     OW 9404   3.258   0.480   1.680
 3054SOL    HW1 9405   3.262   0.520   1.766
 3054SOL    HW2 9406   3.310   0.400   1.687
 3055SOL     OW 9407   2.811   0.885   1.587
 3055SOL    HW1 9408   2.866   0.818   1.547
 3055SOL    HW2 9409   2.762   0.922   1.513
 3056SOL     OW 9410   2.856   0.414   1.230
 3056SOL    HW1 9411   2.769   0.432   1.264
 3056SOL    HW2 9412   2.841   0.372   1.146
 3057SOL     OW 9413   2.922   0.699   0.424
 3057SOL    HW1 9414   2.942   0.696   0.518
 3057SOL    HW2 9415   2.836   0.658   0.416
 3058SOL     OW 9416   1.951   0.818   0.776
 3058SOL    HW1 9417   2.031   0.813   0.829
 3058SOL    HW2 9418   1.904   0.893   0.811
 3059SOL     OW 9419   1.985   1.874   1.584
 3059SOL    HW1 9420   1.990   1.851   1.677
 3059SOL    HW2 9421   1.902   1.838   1.554
 3060SOL     OW 9422   2.744   0.371   0.212
 3060SOL    HW1 9423   2.773   0.421   0.135
 3060SOL    HW2 9424   2.732   0.282   0.179
 3061SOL     OW 9425   3.564   0.570   1.831
 3061SOL    HW1 9426   3.530   0.645   1.781
 3061SOL    HW2 9427   3.588   0.506   1.764
 3062SOL     OW 9428   3.240   1.149   0.556
 3062SOL    HW1 9429   3.322   1.176   0.515
 3062SOL    HW2 9430   3.173   1.201   0.511
 3063SOL     OW 9431   2.364   0.187   0.910
 3063SOL    HW1 9432   2.403   0.219   0.992
 3063SOL    HW2 9433   2.385   0.254   0.846
 3064SOL     OW 9434   2.855   1.439   0.474
 3064SOL    HW1 9435   2.826   1.516   0.425
 3064SOL    HW2 9436   2.830   1.456   0.564
 3065SOL     OW 9437   2.216   1.815   0.872
 3065SOL    HW1 9438   2.261   1.731   0.877
 3065SOL    HW2 9439   2.284   1.880   0.890
 3066SOL     OW 9440   3.667   1.047   0.881
 3066SOL    HW1 9441   3.616   1.045   0.800
 3066SOL    HW2 9442   3.601   1.053   0.951
 3067SOL     OW 9443   3.087   1.541   1.514
 3067SOL    HW1 9444   3.076   1.468   1.575
 3067SOL    HW2 9445   3.021   1.526   1.446
 3068SOL     OW 9446   2.169   0.956   0.227
 3068SOL    HW1 9447   2.259   0.966   0.196
 3068SOL    HW2 9448   2.147   0.865   0.208
 3069SOL     OW 9449   3.346   0.752   0.723
 3069SOL    HW1 9450   3.344   0.716   0.812
 3069SOL    HW2 9451   3.423   0.809   0.723
 3070SOL     OW 9452   2.333   1.270   1.739
 3070SOL    HW1 9453   2.307   1.274   1.647
 3070SOL    HW2 9454   2.250   1.265   1.787
 3071SOL     OW 9455   2.983   1.769   0.243
 3071SOL    HW1 9456   2.915   1.723   0.291
 3071SOL    HW2 9457   3.018   1.705   0.181
 3072SOL     OW 9458   2.049   0.269   1.521
 3072SOL    HW1 9459   1.999   0.350   1.509
 3072SOL    HW2 9460   2.079   0.273   1.612
 3073SOL     OW 9461   3.508   1.431   0.107
 3073SOL    HW1 9462   3.454   1.507   0.084
 3073SOL    HW2 9463   3.445   1.361   0.124
 3074SOL     OW 9464   2.347   1.695   0.385
 3074SOL    HW1 9465   2.377   1.778   0.423
 3074SOL    HW2 9466   2.400   1.685   0.306
 3075SOL     OW 9467   3.288   0.136   0.419
 3075SOL    HW1 9468   3.280   0.053   0.372
 3075SOL    HW2 9469   3.379   0.139   0.447
 3076SOL     OW 9470   2.118   1.789   1.227
 3076SOL    HW1 9471   2.168   1.717   1.266
 3076SOL    HW2 9472   2.109   1.764   1.135
 3077SOL     OW 9473   2.802   1.700   0.897
 3077SOL    HW1 9474   2.883   1.653   0.916
 3077SOL    HW2 9475   2.761   1.649   0.827
 3078SOL     OW 9476   2.263   0.690   0.465
 3078SOL    HW1 9477   2.278   0.597   0.484
 3078SOL    HW2 9478   2.170   0.703   0.483
 3079SOL     OW 9479   3.384   0.228   1.722
 3079SOL    HW1 9480   3.405   0.230   1.816
 3079SOL    HW2 9481   3.295   0.194   1.718
 3080SOL     OW 9482   2.483   0.130   0.098
 3080SOL    HW1 9483   2.577   0.116   0.111
 3080SOL    HW2 9484   2.475   0.151   0.005
 3081SOL     OW 9485   2.629   0.281   1.769
 3081SOL    HW1 9486   2.712   0.235   1.759
 3081SOL    HW2 9487   2.581   0.229   1.834
 3082SOL     OW 9488   2.736   1.522   1.196
 3082SOL    HW1 9489   2.719   1.485   1.110
 3082SOL    HW2 9490   2.806   1.469   1.232
 3083SOL     OW 9491   3.202   0.592   1.435
 3083SOL    HW1 9492   3.233   0.562   1.520
 3083SOL    HW2 9493   3.239   0.680   1.425
 3084SOL     OW 9494   2.681   1.387   0.949
 3084SOL    HW1 9495   2.765   1.377   0.906
 3084SOL    HW2 9496   2.618   1.395   0.877
 3085SOL     OW 9497   2.793   0.512   0.898
 3085SOL    HW1 9498   2.765   0.505   0.807
 3085SOL    HW2 9499   2.823   0.423   0.920
 3086SOL     OW 9500   2.421   0.065   0.495
 3086SOL    HW1 9501   2.342   0.054   0.549
 3086SOL    HW2 9502   2.400   0.137   0.436
 3087SOL     OW 9503   3.296   1.235   0.038
 3087SOL    HW1 9504   3.315   1.151   0.079
 3087SOL    HW2 9505   3.204   1.253   0.059
 3088SOL     OW 9506   2.180   0.067   0.198
 3088SOL    HW1 9507   2.231   0.147   0.206
 3088SOL    HW2 9508   2.206   0.015   0.274
 3089SOL     OW 9509   2.809   0.266   0.459
 3089SOL    HW1 9510   2.783   0.305   0.376
 3089SOL    HW2 9511   2.905   0.273   0.460
 3090SOL     OW 9512   2.944   0.687   1.456
 3090SOL    HW1 9513   2.880   0.616   1.467
 3090SOL    HW2 9514   3.029   0.643   1.453
 3091SOL     OW 9515   3.077   1.574   0.798
 3091SOL    HW1 9516   3.091   1.637   0.728
 3091SOL    HW2 9517   3.151   1.586   0.857
 3092SOL     OW 9518   2.338   1.153   0.727
 3092SOL    HW1 9519   2.268   1.132   0.789
 3092SOL    HW2 9520   2.298   1.145   0.641
 3093SOL     OW 9521   3.117   1.788   0.613
 3093SOL    HW1 9522   3.165   1.854   0.563
 3093SOL    HW2 9523   3.047   1.838   0.656
 3094SOL     OW 9524   2.928   0.581   0.026
 3094SOL    HW1 9525   2.840   0.608   0.050
 3094SOL    HW2 9526   2.974   0.571   0.109
 3095SOL     OW 9527   1.954   0.544   1.404
 3095SOL    HW1 9528   2.043   0.552   1.370
 3095SOL    HW2 9529   1.945   0.618   1.464
 3096SOL     OW 9530   2.429   0.244   1.178
 3096SOL    HW1 9531   2.471   0.171   1.222
 3096SOL    HW2 9532   2.337   0.239   1.204
 3097SOL     OW 9533   2.728   0.463   0.641
 3097SOL    HW1 9534   2.688   0.519   0.574
 3097SOL    HW2 9535   2.752   0.383   0.593
 3098SOL     OW 9536   2.827   0.022   0.771
 3098SOL    HW1 9537   2.772   0.025   0.694
 3098SOL    HW2 9538   2.885   6.947   0.757
 3099SOL     OW 9539   3.312   1.161   0.864
 3099SOL    HW1 9540   3.238   1.106   0.838
 3099SOL    HW2 9541   3.363   1.172   0.784
 3100SOL     OW 9542   3.327   0.611   0.966
 3100SOL    HW1 9543   3.271   0.534   0.970
 3100SOL    HW2 9544   3.386   0.603   1.041
 3101SOL     OW 9545   3.688   0.813   0.397
 3101SOL    HW1 9546   3.749   0.753   0.440
 3101SOL    HW2 9547   3.680   0.779   0.308
 3102SOL     OW 9548   2.329   1.433   0.152
 3102SOL    HW1 9549   2.273   1.388   0.215
 3102SOL    HW2 9550   2.303   1.398   0.067
 3103SOL     OW 9551   3.522   1.242   0.679
 3103SOL    HW1 9552   3.617   1.239   0.665
 3103SOL    HW2 9553   3.499   1.334   0.667
 3104SOL     OW 9554   3.256   0.555   0.063
 3104SOL    HW1 9555   3.204   0.545   0.142
 3104SOL    HW2 9556   3.320   0.484   0.066
 3105SOL     OW 9557   2.365   0.259   0.305
 3105SOL    HW1 9558   2.420   0.214   0.240
 3105SOL    HW2 9559   2.348   0.345   0.266
 3106SOL     OW 9560   3.609   1.243   1.559
 3106SOL    HW1 9561   3.697   1.205   1.549
 3106SOL    HW2 9562   3.625   1.332   1.589
 3107SOL     OW 9563   2.915   1.355   1.334
 3107SOL    HW1 9564   2.839   1.322   1.382
 3107SOL    HW2 9565   2.990   1.312   1.374
 3108SOL     OW 9566   3.472   1.629   1.661
 3108SOL    HW1 9567   3.462   1.663   1.572
 3108SOL    HW2 9568   3.553   1.578   1.658
 3109SOL     OW 9569   3.000   1.215   1.103
 3109SOL    HW1 9570   2.937   1.252   1.165
 3109SOL    HW2 9571   2.971   1.248   1.018
 3110SOL     OW 9572   3.482   1.092   1.078
 3110SOL    HW1 9573   3.474   1.158   1.148
 3110SOL    HW2 9574   3.410   1.112   1.019
 3111SOL     OW 9575   2.750   0.150   1.391
 3111SOL    HW1 9576   2.769   0.123   1.301
 3111SOL    HW2 9577   2.835   0.174   1.427
 3112SOL     OW 9578   2.846   1.115   1.724
 3112SOL    HW1 9579   2.755   1.131   1.748
 3112SOL    HW2 9580   2.843   1.036   1.669
 3113SOL     OW 9581   2.574   1.061   0.373
 3113SOL    HW1 9582   2.558   1.041   0.465
 3113SOL    HW2 9583   2.650   1.009   0.350
 3114SOL     OW 9584   2.285   0.823   1.252
 3114SOL    HW1 9585   2.353   0.831   1.319
 3114SOL    HW2 9586   2.250   0.734   1.264
 3115SOL     OW 9587   3.120   0.374   1.292
 3115SOL    HW1 9588   3.154   0.452   1.335
 3115SOL    HW2 9589   3.030   0.396   1.269
 3116SOL     OW 9590   1.938   1.573   1.358
 3116SOL    HW1 9591   1.909   1.644   1.300
 3116SOL    HW2 9592   2.033   1.572   1.349
 3117SOL     OW 9593   2.223   1.120   0.483
 3117SOL    HW1 9594   2.199   1.191   0.423
 3117SOL    HW2 9595   2.216   1.041   0.429
 3118SOL     OW 9596   2.413   0.533   0.857
 3118SOL    HW1 9597   2.427   0.591   0.783
 3118SOL    HW2 9598   2.481   0.557   0.919
 3119SOL     OW 9599   3.102   1.346   0.396
 3119SOL    HW1 9600   3.158   1.417   0.430
 3119SOL    HW2 9601   3.015   1.366   0.429
 3120SOL     OW 9602   3.154   1.462   1.149
 3120SOL    HW1 9603   3.208   1.466   1.227
 3120SOL    HW2 9604   3.100   1.383   1.161
 3121SOL     OW 9605   3.446   0.632   0.488
 3121SOL    HW1 9606   3.391   0.681   0.550
 3121SOL    HW2 9607   3.503   0.698   0.449
 3122SOL     OW 9608   2.208   1.531   1.308
 3122SOL    HW1 9609   2.197   1.485   1.225
 3122SOL    HW2 9610   2.302   1.542   1.317
 3123SOL     OW 9611   2.285   0.742   1.607
 3123SOL    HW1 9612   2.344   0.788   1.547
 3123SOL    HW2 9613   2.329   0.658   1.623
 3124SOL     OW 9614   3.474   0.784   1.689
 3124SOL    HW1 9615   3.387   0.824   1.682
 3124SOL    HW2 9616   3.525   0.824   1.619
 3125SOL     OW 9617   2.861   0.133   1.729
 3125SOL    HW1 9618   2.903   0.163   1.649
 3125SOL    HW2 9619   2.859   0.037   1.722
 3126SOL     OW 9620   2.324   0.032   1.761
 3126SOL    HW1 9621   2.251   6.970   1.770
 3126SOL    HW2 9622   2.283   0.118   1.763
 3127SOL     OW 9623   2.448   0.876   1.032
 3127SOL    HW1 9624   2.482   0.966   1.035
 3127SOL    HW2 9625   2.391   0.870   1.108
 3128SOL     OW 9626   3.206   0.856   1.024
 3128SOL    HW1 9627   3.121   0.843   0.982
 3128SOL    HW2 9628   3.252   0.773   1.011
 3129SOL     OW 9629   3.059   0.518   0.265
 3129SOL    HW1 9630   3.074   0.445   0.325
 3129SOL    HW2 9631   3.022   0.587   0.320
 3130SOL     OW 9632   2.166   0.208   1.249
 3130SOL    HW1 9633   2.103   0.214   1.320
 3130SOL    HW2 9634   2.157   0.119   1.216
 3131SOL     OW 9635   1.907   1.312   1.273
 3131SOL    HW1 9636   1.940   1.256   1.344
 3131SOL    HW2 9637   1.913   1.401   1.309
 3132SOL     OW 9638   2.584   0.634   1.051
 3132SOL    HW1 9639   2.661   0.622   0.994
 3132SOL    HW2 9640   2.553   0.722   1.032
 3133SOL     OW 9641   3.604   0.959   1.862
 3133SOL    HW1 9642   3.562   0.893   1.808
 3133SOL    HW2 9643   3.541   0.978   1.931
 3134SOL     OW 9644   2.179   0.058   0.620
 3134SOL    HW1 9645   2.160   0.146   0.652
 3134SOL    HW2 9646   2.118   0.002   0.668
 3135SOL     OW 9647   3.490   0.401   0.349
 3135SOL    HW1 9648   3.520   0.332   0.407
 3135SOL    HW2 9649   3.466   0.473   0.407
 3136SOL     OW 9650   2.892   0.759   0.957
 3136SOL    HW1 9651   2.882   0.776   1.051
 3136SOL    HW2 9652   2.865   0.668   0.946
 3137SOL     OW 9653   2.842   1.566   1.723
 3137SOL    HW1 9654   2.826   1.610   1.640
 3137SOL    HW2 9655   2.887   1.484   1.699
 3138SOL     OW 9656   3.712   1.500   1.604
 3138SOL    HW1 9657   3.734   1.528   1.515
 3138SOL    HW2 9658   3.793   1.513   1.653
 3139SOL     OW 9659   2.213   0.916   1.809
 3139SOL    HW1 9660   2.293   0.936   1.858
 3139SOL    HW2 9661   2.241   0.852   1.744
 3140SOL     OW 9662   3.375   0.280   0.133
 3140SOL    HW1 9663   3.315   0.210   0.160
 3140SOL    HW2 9664   3.408   0.316   0.215
 3141SOL     OW 9665   3.154   0.819   0.037
 3141SOL    HW1 9666   3.200   0.736   0.023
 3141SOL    HW2 9667   3.183   0.875   6.964
 3142SOL     OW 9668   2.931   1.339   0.858
 3142SOL    HW1 9669   2.938   1.268   0.795
 3142SOL    HW2 9670   2.988   1.408   0.824
 3143SOL     OW 9671   2.171   0.815   0.945
 3143SOL    HW1 9672   2.264   0.835   0.939
 3143SOL    HW2 9673   2.168   0.724   0.977
 3144SOL     OW 9674   2.197   0.544   1.013
 3144SOL    HW1 9675   2.157   0.458   1.000
 3144SOL    HW2 9676   2.274   0.544   0.956
 3145SOL     OW 9677   2.988   0.419   1.666
 3145SOL    HW1 9678   2.944   0.456   1.743
 3145SOL    HW2 9679   3.080   0.443   1.677
 3146SOL     OW 9680   2.993   0.218   1.492
 3146SOL    HW1 9681   2.994   0.295   1.549
 3146SOL    HW2 9682   3.051   0.242   1.419
 3147SOL     OW 9683   1.952   1.781   0.943
 3147SOL    HW1 9684   1.921   1.704   0.895
 3147SOL    HW2 9685   2.041   1.795   0.911
 3148SOL     OW 9686   2.352   1.575   0.904
 3148SOL    HW1 9687   2.422   1.636   0.927
 3148SOL    HW2 9688   2.395   1.511   0.847
 3149SOL     OW 9689   2.833   0.787   1.222
 3149SOL    HW1 9690   2.893   0.768   1.294
 3149SOL    HW2 9691   2.750   0.747   1.249
 3150SOL     OW 9692   1.898   0.547   1.122
 3150SOL    HW1 9693   1.973   0.536   1.063
 3150SOL    HW2 9694   1.936   0.545   1.210
 3151SOL     OW 9695   2.046   0.533   1.731
 3151SOL    HW1 9696   2.127   0.514   1.682
 3151SOL    HW2 9697   2.007   0.607   1.685
 3152SOL     OW 9698   3.244   0.932   1.656
 3152SOL    HW1 9699   3.265   1.025   1.652
 3152SOL    HW2 9700   3.239   0.904   1.565
 3153SOL     OW 9701   2.679   0.578   0.384
 3153SOL    HW1 9702   2.689   0.504   0.324
 3153SOL    HW2 9703   2.604   0.626   0.351
 3154SOL     OW 9704   3.502   0.601   1.178
 3154SOL    HW1 9705   3.490   0.542   1.252
 3154SOL    HW2 9706   3.590   0.582   1.146
 3155SOL     OW 9707   2.098   1.548   1.722
 3155SOL    HW1 9708   2.077   1.611   1.790
 3155SOL    HW2 9709   2.107   1.464   1.769
 3156SOL     OW 9710   2.579   0.457   1.254
 3156SOL    HW1 9711   2.523   0.384   1.229
 3156SOL    HW2 9712   2.572   0.520   1.182
 3157SOL     OW 9713   2.780   1.679   1.474
 3157SOL    HW1 9714   2.759   1.637   1.390
 3157SOL    HW2 9715   2.776   1.773   1.456
 3158SOL     OW 9716   2.313   0.496   0.177
 3158SOL    HW1 9717   2.375   0.563   0.206
 3158SOL    HW2 9718   2.227   0.538   0.183
 3159SOL     OW 9719   2.001   1.144   1.475
 3159SOL    HW1 9720   2.004   1.099   1.560
 3159SOL    HW2 9721   2.018   1.076   1.411
 3160SOL     OW 9722   3.179   1.043   1.219
 3160SOL    HW1 9723   3.201   0.979   1.151
 3160SOL    HW2 9724   3.116   1.101   1.178
 3161SOL     OW 9725   3.171   0.840   0.312
 3161SOL    HW1 9726   3.092   0.809   0.357
 3161SOL    HW2 9727   3.154   0.824   0.219
 3162SOL     OW 9728   3.646   1.733   1.163
 3162SOL    HW1 9729   3.704   1.760   1.091
 3162SOL    HW2 9730   3.615   1.647   1.137
 3163SOL     OW 9731   3.102   1.733   1.105
 3163SOL    HW1 9732   3.184   1.758   1.063
 3163SOL    HW2 9733   3.113   1.640   1.125
 3164SOL     OW 9734   1.949   1.266   1.009
 3164SOL    HW1 9735   1.929   1.280   1.102
 3164SOL    HW2 9736   1.879   1.209   0.978
 3165SOL     OW 9737   2.542   1.673   1.741
 3165SOL    HW1 9738   2.482   1.747   1.731
 3165SOL    HW2 9739   2.612   1.690   1.677
 3166SOL     OW 9740   2.754   0.112   0.127
 3166SOL    HW1 9741   2.843   0.132   0.099
 3166SOL    HW2 9742   2.763   0.036   0.185
 3167SOL     OW 9743   3.588   0.185   0.487
 3167SOL    HW1 9744   3.657   0.154   0.429
 3167SOL    HW2 9745   3.575   0.114   0.550
 3168SOL     OW 9746   3.248   1.562   0.494
 3168SOL    HW1 9747   3.311   1.594   0.429
 3168SOL    HW2 9748   3.200   1.640   0.521
 3169SOL     OW 9749   2.002   1.796   1.842
 3169SOL    HW1 9750   1.953   1.728   1.888
 3169SOL    HW2 9751   2.049   1.843   1.911
 3170SOL     OW 9752   3.142   0.927   0.671
 3170SOL    HW1 9753   3.216   0.867   0.682
 3170SOL    HW2 9754   3.177   1.000   0.621
 3171SOL     OW 9755   2.664   1.278   1.423
 3171SOL    HW1 9756   2.636   1.320   1.504
 3171SOL    HW2 9757   2.594   1.297   1.361
 3172SOL     OW 9758   2.535   1.609   0.192
 3172SOL    HW1 9759   2.537   1.654   0.108
 3172SOL    HW2 9760   2.478   1.534   0.178
 3173SOL     OW 9761   3.480   1.728   1.393
 3173SOL    HW1 9762   3.535   1.731   1.315
 3173SOL    HW2 9763   3.466   1.819   1.417
 3174SOL     OW 9764   3.733   0.159   0.952
 3174SOL    HW1 9765   3.720   0.065   0.958
 3174SOL    HW2 9766   3.646   0.195   0.938
 3175SOL     OW 9767   2.120   0.311   0.712
 3175SOL    HW1 9768   2.033   0.344   0.690
 3175SOL    HW2 9769   2.123   0.314   0.807
 3176SOL     OW 9770   3.078   1.596   0.041
 3176SOL    HW1 9771   3.070   1.504   0.066
 3176SOL    HW2 9772   2.994   1.619   0.002
 3177SOL     OW 9773   2.685   1.008   1.376
 3177SOL    HW1 9774   2.728   1.000   1.291
 3177SOL    HW2 9775   2.681   1.102   1.392
 3178SOL     OW 9776   2.784   0.914   0.293
 3178SOL    HW1 9777   2.836   0.941   0.218
 3178SOL    HW2 9778   2.837   0.847   0.336
 3179SOL     OW 9779   3.348   1.649   0.044
 3179SOL    HW1 9780   3.253   1.632   0.042
 3179SOL    HW2 9781   3.369   1.674   6.954
 3180SOL     OW 9782   2.228   1.307   1.494
 3180SOL    HW1 9783   2.217   1.381   1.435
 3180SOL    HW2 9784   2.152   1.252   1.478
 3181SOL     OW 9785   3.468   1.285   1.278
 3181SOL    HW1 9786   3.528   1.269   1.351
 3181SOL    HW2 9787   3.408   1.352   1.312
 3182SOL     OW 9788   2.927   1.111   0.712
 3182SOL    HW1 9789   2.853   1.062   0.748
 3182SOL    HW2 9790   2.990   1.044   0.687
 3183SOL     OW 9791   2.890   0.248   0.946
 3183SOL    HW1 9792   2.867   0.196   0.869
 3183SOL    HW2 9793   2.876   0.189   1.020
 3184SOL     OW 9794   2.481   1.475   0.488
 3184SOL    HW1 9795   2.514   1.431   0.409
 3184SOL    HW2 9796   2.419   1.540   0.454
 3185SOL     OW 9797   3.593   0.388   1.378
 3185SOL    HW1 9798   3.662   0.454   1.382
 3185SOL    HW2 9799   3.631   0.317   1.326
 3186SOL     OW 9800   2.134   1.322   0.307
 3186SOL    HW1 9801   2.056   1.346   0.256
 3186SOL    HW2 9802   2.122   1.367   0.391
 3187SOL     OW 9803   1.978   1.039   1.730
 3187SOL    HW1 9804   1.901   1.009   1.778
 3187SOL    HW2 9805   2.052   0.992   1.769
 3188SOL     OW 9806   2.527   0.239   1.513
 3188SOL    HW1 9807   2.604   0.218   1.461
 3188SOL    HW2 9808   2.562   0.272   1.596
 3189SOL     OW 9809   1.976   0.332   0.034
 3189SOL    HW1 9810   1.924   0.281   6.971
 3189SOL    HW2 9811   2.010   0.405   6.983
 3190SOL     OW 9812   3.287   0.858   1.397
 3190SOL    HW1 9813   3.236   0.918   1.342
 3190SOL    HW2 9814   3.375   0.860   1.359
 3191SOL     OW 9815   1.930   0.166   0.297
 3191SOL    HW1 9816   1.926   0.244   0.242
 3191SOL    HW2 9817   2.008   0.119   0.267
 3192SOL     OW 9818   3.044   1.336   0.121
 3192SOL    HW1 9819   2.949   1.327   0.109
 3192SOL    HW2 9820   3.056   1.330   0.216
 3193SOL     OW 9821   2.483   0.832   1.436
 3193SOL    HW1 9822   2.540   0.908   1.421
 3193SOL    HW2 9823   2.543   0.758   1.444
 3194SOL     OW 9824   3.344   1.790   0.983
 3194SOL    HW1 9825   3.367   1.859   0.921
 3194SOL    HW2 9826   3.428   1.755   1.013
 3195SOL     OW 9827   2.578   0.557   1.703
 3195SOL    HW1 9828   2.624   0.619   1.760
 3195SOL    HW2 9829   2.597   0.471   1.742
 3196SOL     OW 9830   3.336   1.192   1.627
 3196SOL    HW1 9831   3.326   1.209   1.721
 3196SOL    HW2 9832   3.428   1.213   1.610
 3197SOL     OW 9833   2.230   1.742   1.567
 3197SOL    HW1 9834   2.148   1.789   1.551
 3197SOL    HW2 9835   2.203   1.659   1.607
 3198SOL     OW 9836   3.525   0.878   1.256
 3198SOL    HW1 9837   3.521   0.794   1.211
 3198SOL    HW2 9838   3.514   0.943   1.186
 3199SOL     OW 9839   3.084   0.316   0.450
 3199SOL    HW1 9840   3.153   0.251   0.441
 3199SOL    HW2 9841   3.107   0.365   0.529
 3200SOL     OW 9842   2.449   0.733   0.670
 3200SOL    HW1 9843   2.488   0.820   0.658
 3200SOL    HW2 9844   2.385   0.726   0.600
 3201SOL     OW 9845   3.611   0.368   1.652
 3201SOL    HW1 9846   3.603   0.381   1.558
 3201SOL    HW2 9847   3.539   0.308   1.675
 3202SOL     OW 9848   3.615   0.933   1.510
 3202SOL    HW1 9849   3.600   1.027   1.522
 3202SOL    HW2 9850   3.594   0.917   1.418
 3203SOL     OW 9851   2.768   1.381   0.055
 3203SOL    HW1 9852   2.711   1.361   0.128
 3203SOL    HW2 9853   2.766   1.477   0.048
 3204SOL     OW 9854   2.526   1.782   0.937
 3204SOL    HW1 9855   2.508   1.874   0.918
 3204SOL    HW2 9856   2.621   1.775   0.932
 3205SOL     OW 9857   2.733   0.973   0.854
 3205SOL    HW1 9858   2.783   0.900   0.891
 3205SOL    HW2 9859   2.692   1.015   0.930
 3206SOL     OW 9860   2.942   0.984   0.077
 3206SOL    HW1 9861   2.960   1.044   0.005
 3206SOL    HW2 9862   3.014   0.921   0.074
 3207SOL     OW 9863   3.708   1.553   0.839
 3207SOL    HW1 9864   3.631   1.538   0.784
 3207SOL    HW2 9865   3.703   1.485   0.906
 3208SOL     OW 9866   2.086   1.296   1.851
 3208SOL    HW1 9867   2.031   1.227   1.813
 3208SOL    HW2 9868   2.051   1.309   1.939
 3209SOL     OW 9869   1.947   1.232   0.666
 3209SOL    HW1 9870   1.980   1.184   0.742
 3209SOL    HW2 9871   1.986   1.187   0.590
 3210SOL     OW 9872   2.548   1.409   1.633
 3210SOL    HW1 9873   2.469   1.367   1.667
 3210SOL    HW2 9874   2.546   1.498   1.669
 3211SOL     OW 9875   3.714   0.190   1.239
 3211SOL    HW1 9876   3.644   0.129   1.217
 3211SOL    HW2 9877   3.748   0.219   1.154
 3212SOL     OW 9878   2.290   0.430   0.523
 3212SOL    HW1 9879   2.317   0.357   0.467
 3212SOL    HW2 9880   2.240   0.388   0.593
 3213SOL     OW 9881   3.555   1.487   1.092
 3213SOL    HW1 9882   3.479   1.468   1.038
 3213SOL    HW2 9883   3.558   1.416   1.156
 3214SOL     OW 9884   2.197   0.565   1.291
 3214SOL    HW1 9885   2.250   0.506   1.345
 3214SOL    HW2 9886   2.216   0.539   1.201
 3215SOL     OW 9887   2.694   1.581   0.677
 3215SOL    HW1 9888   2.675   1.648   0.611
 3215SOL    HW2 9889   2.619   1.521   0.672
 3216SOL     OW 9890   3.270   0.214   1.131
 3216SOL    HW1 9891   3.347   0.176   1.173
 3216SOL    HW2 9892   3.224   0.259   1.202
 3217SOL     OW 9893   2.834   0.060   1.136
 3217SOL    HW1 9894   2.781   6.996   1.088
 3217SOL    HW2 9895   2.885   0.007   1.198
 3218SOL     OW 9896   2.649   1.320   0.303
 3218SOL    HW1 9897   2.616   1.232   0.324
 3218SOL    HW2 9898   2.719   1.334   0.367
 3219SOL     OW 9899   2.481   1.557   1.288
 3219SOL    HW1 9900   2.482   1.639   1.337
 3219SOL    HW2 9901   2.570   1.550   1.252
 3220SOL     OW 9902   3.215   0.049   0.137
 3220SOL    HW1 9903   3.207   6.960   0.104
 3220SOL    HW2 9904   3.130   0.089   0.121
 3221SOL     OW 9905   3.128   0.451   0.683
 3221SOL    HW1 9906   3.085   0.536   0.683
 3221SOL    HW2 9907   3.148   0.434   0.775
 3222SOL     OW 9908   3.485   0.257   0.915
 3222SOL    HW1 9909   3.397   0.239   0.949
 3222SOL    HW2 9910   3.471   0.320   0.844
 3223SOL     OW 9911   1.940   1.051   0.368
 3223SOL    HW1 9912   2.020   1.028   0.321
 3223SOL    HW2 9913   1.892   0.968   0.376
 3224SOL     OW 9914   2.754   1.661   0.352
 3224SOL    HW1 9915   2.679   1.638   0.297
 3224SOL    HW2 9916   2.724   1.735   0.404
 3225SOL     OW 9917   2.081   0.624   1.994
 3225SOL    HW1 9918   1.994   0.617   2.033
 3225SOL    HW2 9919   2.067   0.604   1.902
 3226SOL     OW 9920   2.085   0.307   2.856
 3226SOL    HW1 9921   2.123   0.263   2.933
 3226SOL    HW2 9922   2.008   0.254   2.834
 3227SOL     OW 9923   1.870   0.397   2.492
 3227SOL    HW1 9924   1.786   0.412   2.534
 3227SOL    HW2 9925   1.853   0.330   2.426
 3228SOL     OW 9926   2.433   1.300   3.049
 3228SOL    HW1 9927   2.347   1.303   3.007
 3228SOL    HW2 9928   2.447   1.389   3.080
 3229SOL     OW 9929   3.437   1.515   2.569
 3229SOL    HW1 9930   3.392   1.488   2.649
 3229SOL    HW2 9931   3.369   1.519   2.503
 3230SOL     OW 9932   2.995   0.700   2.557
 3230SOL    HW1 9933   3.043   0.782   2.545
 3230SOL    HW2 9934   2.947   0.713   2.638
 3231SOL     OW 9935   3.639   0.602   2.086
 3231SOL    HW1 9936   3.615   0.598   1.994
 3231SOL    HW2 9937   3.599   0.524   2.125
 3232SOL     OW 9938   2.608   1.138   2.913
 3232SOL    HW1 9939   2.542   1.176   2.971
 3232SOL    HW2 9940   2.646   1.213   2.867
 3233SOL     OW 9941   2.738   0.760   3.688
 3233SOL    HW1 9942   2.724   0.829   3.752
 3233SOL    HW2 9943   2.760   0.805   3.607
 3234SOL     OW 9944   2.548   0.997   2.505
 3234SOL    HW1 9945   2.614   0.990   2.574
 3234SOL    HW2 9946   2.480   1.052   2.542
 3235SOL     OW 9947   2.577   1.149   3.682
 3235SOL    HW1 9948   2.624   1.226   3.713
 3235SOL    HW2 9949   2.497   1.184   3.643
 3236SOL     OW 9950   2.194   1.414   2.929
 3236SOL    HW1 9951   2.119   1.374   2.885
 3236SOL    HW2 9952   2.237   1.466   2.861
 3237SOL     OW 9953   3.316   1.485   3.233
 3237SOL    HW1 9954   3.301   1.578   3.251
 3237SOL    HW2 9955   3.253   1.439   3.288
 3238SOL     OW 9956   2.304   0.399   3.343
 3238SOL    HW1 9957   2.386   0.351   3.352
 3238SOL    HW2 9958   2.236   0.331   3.350
 3239SOL     OW 9959   3.475   0.455   2.587
 3239SOL    HW1 9960   3.425   0.486   2.512
 3239SOL    HW2 9961   3.471   0.528   2.649
 3240SOL     OW 9962   2.081   1.717   2.329
 3240SOL    HW1 9963   2.103   1.791   2.385
 3240SOL    HW2 9964   2.156   1.709   2.270
 3241SOL     OW 9965   3.000   1.343   3.556
 3241SOL    HW1 9966   3.039   1.337   3.643
 3241SOL    HW2 9967   2.946   1.264   3.549
 3242SOL     OW 9968   2.097   1.447   2.400
 3242SOL    HW1 9969   2.076   1.540   2.400
 3242SOL    HW2 9970   2.038   1.409   2.465
 3243SOL     OW 9971   2.133   1.093   2.754
 3243SOL    HW1 9972   2.127   1.003   2.789
 3243SOL    HW2 9973   2.073   1.143   2.809
 3244SOL     OW 9974   2.466   1.791   3.294
 3244SOL    HW1 9975   2.383   1.773   3.339
 3244SOL    HW2 9976   2.488   1.880   3.319
 3245SOL     OW 9977   2.438   0.985   2.003
 3245SOL    HW1 9978   2.487   1.029   1.934
 3245SOL    HW2 9979   2.478   1.017   2.085
 3246SOL     OW 9980   3.435   0.127   3.301
 3246SOL    HW1 9981   3.459   0.217   3.277
 3246SOL    HW2 9982   3.448   0.124   3.396
 3247SOL     OW 9983   1.982   0.658   2.423
 3247SOL    HW1 9984   1.954   0.569   2.445
 3247SOL    HW2 9985   1.973   0.706   2.505
 3248SOL     OW 9986   3.706   1.754   2.192
 3248SOL    HW1 9987   3.777   1.729   2.251
 3248SOL    HW2 9988   3.723   1.845   2.170
 3249SOL     OW 9989   1.903   1.589   1.982
 3249SOL    HW1 9990   1.884   1.497   2.002
 3249SOL    HW2 9991   1.876   1.637   2.060
 3250SOL     OW 9992   3.555   0.921   2.510
 3250SOL    HW1 9993   3.633   0.872   2.484
 3250SOL    HW2 9994   3.531   0.971   2.432
 3251SOL     OW 9995   3.512   1.101   2.292
 3251SOL    HW1 9996   3.598   1.100   2.251
 3251SOL    HW2 9997   3.520   1.165   2.362
 3252SOL     OW 9998   1.983   0.751   3.442
 3252SOL    HW1 9999   2.072   0.786   3.446
 3252SOL    HW210000   1.926   0.828   3.440
 3253SOL     OW10001   2.479   1.392   2.598
 3253SOL    HW110002   2.435   1.307   2.605
 3253SOL    HW210003   2.462   1.420   2.508
 3254SOL     OW10004   3.157   1.245   3.280
 3254SOL    HW110005   3.177   1.173   3.220
 3254SOL    HW210006   3.208   1.226   3.359
 3255SOL     OW10007   2.689   0.027   2.384
 3255SOL    HW110008   2.722   0.114   2.363
 3255SOL    HW210009   2.594   0.037   2.386
 3256SOL     OW10010   2.049   0.960   3.144
 3256SOL    HW110011   2.136   0.922   3.128
 3256SOL    HW210012   1.992   0.915   3.083
 3257SOL     OW10013   3.393   1.000   2.062
 3257SOL    HW110014   3.323   0.943   2.095
 3257SOL    HW210015   3.436   1.033   2.141
 3258SOL     OW10016   3.053   1.815   3.488
 3258SOL    HW110017   3.046   1.875   3.414
 3258SOL    HW210018   3.057   1.728   3.448
 3259SOL     OW10019   2.182   0.269   3.645
 3259SOL    HW110020   2.239   0.332   3.690
 3259SOL    HW210021   2.102   0.267   3.698
 3260SOL     OW10022   3.327   1.421   2.803
 3260SOL    HW110023   3.262   1.435   2.871
 3260SOL    HW210024   3.316   1.330   2.777
 3261SOL     OW10025   3.514   1.758   2.439
 3261SOL    HW110026   3.497   1.727   2.350
 3261SOL    HW210027   3.497   1.683   2.495
 3262SOL     OW10028   2.454   0.715   2.133
 3262SOL    HW110029   2.456   0.800   2.088
 3262SOL    HW210030   2.389   0.725   2.202
 3263SOL     OW10031   3.145   0.377   2.814
 3263SOL    HW110032   3.053   0.351   2.820
 3263SOL    HW210033   3.189   0.323   2.879
 3264SOL     OW10034   3.440   1.674   2.174
 3264SOL    HW110035   3.532   1.698   2.164
 3264SOL    HW210036   3.410   1.658   2.085
 3265SOL     OW10037   2.655   0.623   3.315
 3265SOL    HW110038   2.629   0.592   3.402
 3265SOL    HW210039   2.623   0.555   3.256
 3266SOL     OW10040   3.259   0.480   3.542
 3266SOL    HW110041   3.262   0.520   3.629
 3266SOL    HW210042   3.310   0.400   3.550
 3267SOL     OW10043   2.813   0.885   3.450
 3267SOL    HW110044   2.867   0.817   3.410
 3267SOL    HW210045   2.762   0.921   3.377
 3268SOL     OW10046   2.857   0.415   3.092
 3268SOL    HW110047   2.769   0.433   3.126
 3268SOL    HW210048   2.841   0.367   3.010
 3269SOL     OW10049   2.918   0.698   2.286
 3269SOL    HW110050   2.935   0.692   2.380
 3269SOL    HW210051   2.833   0.655   2.274
 3270SOL     OW10052   1.949   0.823   2.640
 3270SOL    HW110053   2.030   0.816   2.692
 3270SOL    HW210054   1.904   0.899   2.677
 3271SOL     OW10055   1.987   1.874   3.446
 3271SOL    HW110056   1.991   1.851   3.539
 3271SOL    HW210057   1.902   1.840   3.417
 3272SOL     OW10058   2.751   0.355   2.062
 3272SOL    HW110059   2.798   0.411   1.999
 3272SOL    HW210060   2.718   0.283   2.009
 3273SOL     OW10061   3.565   0.569   3.692
 3273SOL    HW110062   3.530   0.644   3.643
 3273SOL    HW210063   3.589   0.505   3.625
 3274SOL     OW10064   3.245   1.143   2.402
 3274SOL    HW110065   3.323   1.130   2.348
 3274SOL    HW210066   3.191   1.204   2.352
 3275SOL     OW10067   2.362   0.186   2.773
 3275SOL    HW110068   2.402   0.220   2.853
 3275SOL    HW210069   2.384   0.251   2.706
 3276SOL     OW10070   2.862   1.447   2.331
 3276SOL    HW110071   2.831   1.521   2.278
 3276SOL    HW210072   2.832   1.467   2.419
 3277SOL     OW10073   2.215   1.815   2.734
 3277SOL    HW110074   2.260   1.731   2.740
 3277SOL    HW210075   2.284   1.880   2.753
 3278SOL     OW10076   3.665   1.054   2.735
 3278SOL    HW110077   3.616   1.031   2.657
 3278SOL    HW210078   3.600   1.058   2.805
 3279SOL     OW10079   3.079   1.544   3.376
 3279SOL    HW110080   3.067   1.474   3.440
 3279SOL    HW210081   3.008   1.530   3.313
 3280SOL     OW10082   2.174   0.960   2.118
 3280SOL    HW110083   2.256   0.980   2.073
 3280SOL    HW210084   2.145   0.877   2.080
 3281SOL     OW10085   3.345   0.754   2.585
 3281SOL    HW110086   3.341   0.713   2.672
 3281SOL    HW210087   3.424   0.808   2.588
 3282SOL     OW10088   2.334   1.269   3.599
 3282SOL    HW110089   2.308   1.274   3.507
 3282SOL    HW210090   2.252   1.265   3.648
 3283SOL     OW10091   2.989   1.775   2.094
 3283SOL    HW110092   2.910   1.738   2.133
 3283SOL    HW210093   3.012   1.713   2.024
 3284SOL     OW10094   2.049   0.268   3.384
 3284SOL    HW110095   1.998   0.348   3.373
 3284SOL    HW210096   2.080   0.272   3.474
 3285SOL     OW10097   3.491   1.383   1.958
 3285SOL    HW110098   3.450   1.468   1.940
 3285SOL    HW210099   3.424   1.319   1.934
 3286SOL     OW10100   2.324   1.737   2.180
 3286SOL    HW110101   2.370   1.792   2.243
 3286SOL    HW210102   2.393   1.701   2.124
 3287SOL     OW10103   3.287   0.140   2.289
 3287SOL    HW110104   3.273   0.092   2.208
 3287SOL    HW210105   3.382   0.142   2.300
 3288SOL     OW10106   2.119   1.790   3.088
 3288SOL    HW110107   2.166   1.716   3.127
 3288SOL    HW210108   2.106   1.765   2.997
 3289SOL     OW10109   2.805   1.698   2.755
 3289SOL    HW110110   2.886   1.648   2.769
 3289SOL    HW210111   2.759   1.650   2.686
 3290SOL     OW10112   2.260   0.691   2.335
 3290SOL    HW110113   2.276   0.598   2.348
 3290SOL    HW210114   2.166   0.702   2.352
 3291SOL     OW10115   3.385   0.229   3.585
 3291SOL    HW110116   3.405   0.231   3.678
 3291SOL    HW210117   3.296   0.193   3.579
 3292SOL     OW10118   2.515   0.112   1.961
 3292SOL    HW110119   2.549   0.041   2.015
 3292SOL    HW210120   2.450   0.071   1.904
 3293SOL     OW10121   2.630   0.280   3.630
 3293SOL    HW110122   2.714   0.235   3.621
 3293SOL    HW210123   2.582   0.229   3.695
 3294SOL     OW10124   2.738   1.526   3.057
 3294SOL    HW110125   2.720   1.487   2.972
 3294SOL    HW210126   2.805   1.469   3.095
 3295SOL     OW10127   3.202   0.592   3.298
 3295SOL    HW110128   3.233   0.561   3.383
 3295SOL    HW210129   3.240   0.680   3.290
 3296SOL     OW10130   2.681   1.389   2.810
 3296SOL    HW110131   2.765   1.378   2.766
 3296SOL    HW210132   2.618   1.397   2.739
 3297SOL     OW10133   2.793   0.514   2.757
 3297SOL    HW110134   2.765   0.507   2.666
 3297SOL    HW210135   2.822   0.426   2.780
 3298SOL     OW10136   2.422   0.067   2.357
 3298SOL    HW110137   2.343   0.055   2.410
 3298SOL    HW210138   2.399   0.136   2.294
 3299SOL     OW10139   3.291   1.203   1.900
 3299SOL    HW110140   3.319   1.127   1.951
 3299SOL    HW210141   3.205   1.224   1.935
 3300SOL     OW10142   2.182   0.059   2.049
 3300SOL    HW110143   2.226   0.141   2.073
 3300SOL    HW210144   2.212   6.996   2.114
 3301SOL     OW10145   2.809   0.268   2.317
 3301SOL    HW110146   2.784   0.299   2.230
 3301SOL    HW210147   2.904   0.277   2.320
 3302SOL     OW10148   2.944   0.687   3.316
 3302SOL    HW110149   2.879   0.617   3.330
 3302SOL    HW210150   3.028   0.642   3.316
 3303SOL     OW10151   3.075   1.578   2.661
 3303SOL    HW110152   3.089   1.641   2.590
 3303SOL    HW210153   3.156   1.582   2.712
 3304SOL     OW10154   2.336   1.155   2.586
 3304SOL    HW110155   2.271   1.134   2.653
 3304SOL    HW210156   2.291   1.143   2.503
 3305SOL     OW10157   3.125   1.793   2.479
 3305SOL    HW110158   3.173   1.853   2.422
 3305SOL    HW210159   3.053   1.845   2.514
 3306SOL     OW10160   2.882   0.534   1.895
 3306SOL    HW110161   2.840   0.617   1.875
 3306SOL    HW210162   2.948   0.556   1.960
 3307SOL     OW10163   1.954   0.545   3.265
 3307SOL    HW110164   2.043   0.552   3.232
 3307SOL    HW210165   1.945   0.619   3.325
 3308SOL     OW10166   2.429   0.245   3.040
 3308SOL    HW110167   2.471   0.169   3.081
 3308SOL    HW210168   2.338   0.240   3.067
 3309SOL     OW10169   2.728   0.466   2.498
 3309SOL    HW110170   2.681   0.521   2.434
 3309SOL    HW210171   2.752   0.388   2.449
 3310SOL     OW10172   2.828   0.024   2.632
 3310SOL    HW110173   2.772   0.026   2.554
 3310SOL    HW210174   2.884   6.948   2.619
 3311SOL     OW10175   3.301   1.161   2.717
 3311SOL    HW110176   3.230   1.097   2.718
 3311SOL    HW210177   3.326   1.167   2.624
 3312SOL     OW10178   3.327   0.613   2.827
 3312SOL    HW110179   3.271   0.535   2.831
 3312SOL    HW210180   3.386   0.603   2.902
 3313SOL     OW10181   3.699   0.810   2.250
 3313SOL    HW110182   3.759   0.761   2.307
 3313SOL    HW210183   3.676   0.748   2.181
 3314SOL     OW10184   2.351   1.422   2.013
 3314SOL    HW110185   2.275   1.393   2.064
 3314SOL    HW210186   2.347   1.370   1.932
 3315SOL     OW10187   3.542   1.264   2.503
 3315SOL    HW110188   3.636   1.263   2.517
 3315SOL    HW210189   3.516   1.354   2.521
 3316SOL     OW10190   3.257   0.574   1.935
 3316SOL    HW110191   3.195   0.552   2.004
 3316SOL    HW210192   3.343   0.559   1.975
 3317SOL     OW10193   2.372   0.255   2.158
 3317SOL    HW110194   2.437   0.218   2.098
 3317SOL    HW210195   2.353   0.342   2.122
 3318SOL     OW10196   3.608   1.244   3.421
 3318SOL    HW110197   3.695   1.204   3.417
 3318SOL    HW210198   3.624   1.331   3.459
 3319SOL     OW10199   2.914   1.358   3.199
 3319SOL    HW110200   2.838   1.323   3.246
 3319SOL    HW210201   2.989   1.314   3.239
 3320SOL     OW10202   3.488   1.664   3.520
 3320SOL    HW110203   3.471   1.677   3.427
 3320SOL    HW210204   3.556   1.597   3.524
 3321SOL     OW10205   3.002   1.222   2.963
 3321SOL    HW110206   2.932   1.247   3.023
 3321SOL    HW210207   2.970   1.249   2.877
 3322SOL     OW10208   3.483   1.093   2.936
 3322SOL    HW110209   3.477   1.155   3.009
 3322SOL    HW210210   3.407   1.112   2.881
 3323SOL     OW10211   2.750   0.151   3.253
 3323SOL    HW110212   2.770   0.121   3.164
 3323SOL    HW210213   2.835   0.175   3.290
 3324SOL     OW10214   2.846   1.117   3.583
 3324SOL    HW110215   2.755   1.132   3.610
 3324SOL    HW210216   2.842   1.037   3.531
 3325SOL     OW10217   2.573   1.063   2.233
 3325SOL    HW110218   2.558   1.042   2.325
 3325SOL    HW210219   2.648   1.010   2.208
 3326SOL     OW10220   2.285   0.822   3.113
 3326SOL    HW110221   2.353   0.830   3.181
 3326SOL    HW210222   2.250   0.734   3.125
 3327SOL     OW10223   3.120   0.374   3.155
 3327SOL    HW110224   3.154   0.453   3.198
 3327SOL    HW210225   3.030   0.397   3.131
 3328SOL     OW10226   1.937   1.574   3.221
 3328SOL    HW110227   1.907   1.644   3.163
 3328SOL    HW210228   2.032   1.573   3.211
 3329SOL     OW10229   2.196   1.122   2.351
 3329SOL    HW110230   2.197   1.195   2.289
 3329SOL    HW210231   2.195   1.044   2.295
 3330SOL     OW10232   2.413   0.534   2.720
 3330SOL    HW110233   2.427   0.593   2.646
 3330SOL    HW210234   2.482   0.557   2.782
 3331SOL     OW10235   3.109   1.350   2.255
 3331SOL    HW110236   3.165   1.421   2.286
 3331SOL    HW210237   3.021   1.373   2.287
 3332SOL     OW10238   3.151   1.459   3.006
 3332SOL    HW110239   3.201   1.450   3.088
 3332SOL    HW210240   3.094   1.382   3.004
 3333SOL     OW10241   3.432   0.620   2.350
 3333SOL    HW110242   3.384   0.675   2.412
 3333SOL    HW210243   3.481   0.683   2.296
 3334SOL     OW10244   2.207   1.532   3.169
 3334SOL    HW110245   2.196   1.485   3.087
 3334SOL    HW210246   2.302   1.543   3.178
 3335SOL     OW10247   2.285   0.741   3.469
 3335SOL    HW110248   2.343   0.787   3.410
 3335SOL    HW210249   2.327   0.657   3.485
 3336SOL     OW10250   3.474   0.783   3.552
 3336SOL    HW110251   3.388   0.822   3.544
 3336SOL    HW210252   3.525   0.823   3.481
 3337SOL     OW10253   2.863   0.133   3.592
 3337SOL    HW110254   2.905   0.162   3.511
 3337SOL    HW210255   2.858   0.038   3.585
 3338SOL     OW10256   2.324   0.032   3.623
 3338SOL    HW110257   2.250   6.971   3.632
 3338SOL    HW210258   2.283   0.118   3.625
 3339SOL     OW10259   2.449   0.875   2.894
 3339SOL    HW110260   2.480   0.966   2.899
 3339SOL    HW210261   2.390   0.866   2.970
 3340SOL     OW10262   3.204   0.859   2.883
 3340SOL    HW110263   3.118   0.841   2.846
 3340SOL    HW210264   3.252   0.777   2.873
 3341SOL     OW10265   3.062   0.527   2.123
 3341SOL    HW110266   3.070   0.449   2.178
 3341SOL    HW210267   3.019   0.591   2.180
 3342SOL     OW10268   2.166   0.209   3.111
 3342SOL    HW110269   2.103   0.214   3.183
 3342SOL    HW210270   2.158   0.119   3.078
 3343SOL     OW10271   1.911   1.312   3.135
 3343SOL    HW110272   1.941   1.256   3.206
 3343SOL    HW210273   1.914   1.401   3.171
 3344SOL     OW10274   2.587   0.634   2.913
 3344SOL    HW110275   2.661   0.622   2.854
 3344SOL    HW210276   2.554   0.722   2.893
 3345SOL     OW10277   3.602   0.964   3.721
 3345SOL    HW110278   3.560   0.893   3.670
 3345SOL    HW210279   3.541   0.980   3.793
 3346SOL     OW10280   2.183   0.059   2.486
 3346SOL    HW110281   2.162   0.147   2.516
 3346SOL    HW210282   2.124   0.001   2.535
 3347SOL     OW10283   3.484   0.396   2.198
 3347SOL    HW110284   3.514   0.324   2.254
 3347SOL    HW210285   3.455   0.463   2.260
 3348SOL     OW10286   2.893   0.760   2.820
 3348SOL    HW110287   2.882   0.776   2.914
 3348SOL    HW210288   2.866   0.669   2.808
 3349SOL     OW10289   2.846   1.571   3.585
 3349SOL    HW110290   2.828   1.612   3.500
 3349SOL    HW210291   2.883   1.485   3.563
 3350SOL     OW10292   3.712   1.510   3.473
 3350SOL    HW110293   3.742   1.530   3.384
 3350SOL    HW210294   3.791   1.514   3.527
 3351SOL     OW10295   2.214   0.917   3.670
 3351SOL    HW110296   2.293   0.935   3.721
 3351SOL    HW210297   2.241   0.852   3.605
 3352SOL     OW10298   3.403   0.228   1.994
 3352SOL    HW110299   3.308   0.228   2.007
 3352SOL    HW210300   3.436   0.288   2.061
 3353SOL     OW10301   3.148   0.825   1.889
 3353SOL    HW110302   3.190   0.738   1.893
 3353SOL    HW210303   3.180   0.863   1.808
 3354SOL     OW10304   2.931   1.340   2.719
 3354SOL    HW110305   2.936   1.268   2.656
 3354SOL    HW210306   2.986   1.409   2.681
 3355SOL     OW10307   2.170   0.814   2.807
 3355SOL    HW110308   2.264   0.833   2.798
 3355SOL    HW210309   2.167   0.724   2.838
 3356SOL     OW10310   2.197   0.544   2.875
 3356SOL    HW110311   2.157   0.459   2.862
 3356SOL    HW210312   2.274   0.544   2.818
 3357SOL     OW10313   2.988   0.425   3.524
 3357SOL    HW110314   2.944   0.457   3.603
 3357SOL    HW210315   3.080   0.445   3.538
 3358SOL     OW10316   2.993   0.219   3.355
 3358SOL    HW110317   2.992   0.297   3.410
 3358SOL    HW210318   3.051   0.242   3.282
 3359SOL     OW10319   1.872   1.315   2.055
 3359SOL    HW110320   1.785   1.332   2.020
 3359SOL    HW210321   1.867   1.226   2.090
 3360SOL     OW10322   1.952   1.779   2.806
 3360SOL    HW110323   1.921   1.703   2.758
 3360SOL    HW210324   2.041   1.795   2.773
 3361SOL     OW10325   2.353   1.575   2.766
 3361SOL    HW110326   2.422   1.637   2.790
 3361SOL    HW210327   2.395   1.512   2.707
 3362SOL     OW10328   2.833   0.788   3.085
 3362SOL    HW110329   2.891   0.767   3.158
 3362SOL    HW210330   2.750   0.746   3.107
 3363SOL     OW10331   1.898   0.549   2.983
 3363SOL    HW110332   1.972   0.533   2.926
 3363SOL    HW210333   1.934   0.546   3.072
 3364SOL     OW10334   2.045   0.533   3.594
 3364SOL    HW110335   2.125   0.513   3.545
 3364SOL    HW210336   2.007   0.607   3.547
 3365SOL     OW10337   3.244   0.931   3.519
 3365SOL    HW110338   3.264   1.025   3.515
 3365SOL    HW210339   3.241   0.904   3.428
 3366SOL     OW10340   2.680   0.576   2.229
 3366SOL    HW110341   2.686   0.500   2.171
 3366SOL    HW210342   2.604   0.625   2.197
 3367SOL     OW10343   3.502   0.604   3.041
 3367SOL    HW110344   3.489   0.542   3.112
 3367SOL    HW210345   3.590   0.585   3.008
 3368SOL     OW10346   2.099   1.548   3.584
 3368SOL    HW110347   2.077   1.612   3.652
 3368SOL    HW210348   2.107   1.465   3.631
 3369SOL     OW10349   2.580   0.458   3.117
 3369SOL    HW110350   2.524   0.385   3.092
 3369SOL    HW210351   2.573   0.519   3.045
 3370SOL     OW10352   2.789   1.677   3.330
 3370SOL    HW110353   2.760   1.636   3.249
 3370SOL    HW210354   2.777   1.771   3.314
 3371SOL     OW10355   2.320   0.491   2.035
 3371SOL    HW110356   2.380   0.561   2.061
 3371SOL    HW210357   2.234   0.534   2.028
 3372SOL     OW10358   2.002   1.144   3.337
 3372SOL    HW110359   2.005   1.098   3.421
 3372SOL    HW210360   2.020   1.076   3.272
 3373SOL     OW10361   3.180   1.047   3.080
 3373SOL    HW110362   3.199   0.981   3.013
 3373SOL    HW210363   3.116   1.105   3.039
 3374SOL     OW10364   3.179   0.855   2.165
 3374SOL    HW110365   3.104   0.824   2.216
 3374SOL    HW210366   3.152   0.843   2.074
 3375SOL     OW10367   3.658   1.726   3.028
 3375SOL    HW110368   3.711   1.750   2.953
 3375SOL    HW210369   3.619   1.642   3.004
 3376SOL     OW10370   3.115   1.736   2.988
 3376SOL    HW110371   3.192   1.756   2.934
 3376SOL    HW210372   3.114   1.641   2.995
 3377SOL     OW10373   1.951   1.264   2.872
 3377SOL    HW110374   1.933   1.280   2.964
 3377SOL    HW210375   1.879   1.210   2.841
 3378SOL     OW10376   2.539   1.674   3.603
 3378SOL    HW110377   2.478   1.747   3.597
 3378SOL    HW210378   2.606   1.694   3.538
 3379SOL     OW10379   3.571   0.175   2.332
 3379SOL    HW110380   3.650   0.156   2.281
 3379SOL    HW210381   3.574   0.112   2.405
 3380SOL     OW10382   3.258   1.568   2.357
 3380SOL    HW110383   3.314   1.601   2.286
 3380SOL    HW210384   3.204   1.643   2.382
 3381SOL     OW10385   2.004   1.796   3.704
 3381SOL    HW110386   1.954   1.728   3.750
 3381SOL    HW210387   2.051   1.843   3.773
 3382SOL     OW10388   3.140   0.931   2.534
 3382SOL    HW110389   3.214   0.870   2.545
 3382SOL    HW210390   3.175   1.001   2.479
 3383SOL     OW10391   2.662   1.278   3.283
 3383SOL    HW110392   2.635   1.320   3.364
 3383SOL    HW210393   2.589   1.294   3.222
 3384SOL     OW10394   2.530   1.627   2.018
 3384SOL    HW110395   2.543   1.642   1.924
 3384SOL    HW210396   2.474   1.549   2.022
 3385SOL     OW10397   3.491   1.779   3.247
 3385SOL    HW110398   3.554   1.749   3.182
 3385SOL    HW210399   3.406   1.776   3.202
 3386SOL     OW10400   3.733   0.159   2.815
 3386SOL    HW110401   3.720   0.065   2.819
 3386SOL    HW210402   3.645   0.195   2.802
 3387SOL     OW10403   2.122   0.312   2.575
 3387SOL    HW110404   2.036   0.347   2.552
 3387SOL    HW210405   2.124   0.314   2.671
 3388SOL     OW10406   3.070   1.600   1.896
 3388SOL    HW110407   3.059   1.508   1.921
 3388SOL    HW210408   3.005   1.615   1.827
 3389SOL     OW10409   2.684   1.007   3.240
 3389SOL    HW110410   2.725   0.998   3.154
 3389SOL    HW210411   2.680   1.102   3.254
 3390SOL     OW10412   2.780   0.912   2.155
 3390SOL    HW110413   2.839   0.944   2.087
 3390SOL    HW210414   2.830   0.843   2.199
 3391SOL     OW10415   3.350   1.631   1.909
 3391SOL    HW110416   3.257   1.619   1.893
 3391SOL    HW210417   3.389   1.636   1.822
 3392SOL     OW10418   2.229   1.306   3.354
 3392SOL    HW110419   2.215   1.382   3.297
 3392SOL    HW210420   2.153   1.251   3.340
 3393SOL     OW10421   3.474   1.279   3.144
 3393SOL    HW110422   3.530   1.258   3.219
 3393SOL    HW210423   3.414   1.346   3.177
 3394SOL     OW10424   2.926   1.112   2.576
 3394SOL    HW110425   2.852   1.061   2.611
 3394SOL    HW210426   2.989   1.045   2.549
 3395SOL     OW10427   2.890   0.248   2.807
 3395SOL    HW110428   2.867   0.197   2.730
 3395SOL    HW210429   2.876   0.189   2.881
 3396SOL     OW10430   2.469   1.490   2.343
 3396SOL    HW110431   2.519   1.439   2.279
 3396SOL    HW210432   2.392   1.519   2.295
 3397SOL     OW10433   3.592   0.389   3.238
 3397SOL    HW110434   3.663   0.454   3.243
 3397SOL    HW210435   3.629   0.318   3.187
 3398SOL     OW10436   2.127   1.341   2.158
 3398SOL    HW110437   2.035   1.337   2.131
 3398SOL    HW210438   2.125   1.383   2.244
 3399SOL     OW10439   1.978   1.039   3.591
 3399SOL    HW110440   1.901   1.009   3.639
 3399SOL    HW210441   2.051   0.992   3.631
 3400SOL     OW10442   2.527   0.240   3.376
 3400SOL    HW110443   2.604   0.218   3.324
 3400SOL    HW210444   2.562   0.272   3.458
 3401SOL     OW10445   1.937   0.332   1.898
 3401SOL    HW110446   1.846   0.316   1.875
 3401SOL    HW210447   1.962   0.409   1.846
 3402SOL     OW10448   3.287   0.861   3.259
 3402SOL    HW110449   3.236   0.920   3.204
 3402SOL    HW210450   3.375   0.861   3.220
 3403SOL     OW10451   1.930   0.175   2.170
 3403SOL    HW110452   1.939   0.240   2.100
 3403SOL    HW210453   1.977   0.098   2.138
 3404SOL     OW10454   3.040   1.332   1.980
 3404SOL    HW110455   2.949   1.304   1.980
 3404SOL    HW210456   3.065   1.333   2.072
 3405SOL     OW10457   2.482   0.832   3.299
 3405SOL    HW110458   2.539   0.907   3.284
 3405SOL    HW210459   2.542   0.757   3.306
 3406SOL     OW10460   3.348   1.792   2.852
 3406SOL    HW110461   3.364   1.856   2.783
 3406SOL    HW210462   3.429   1.741   2.856
 3407SOL     OW10463   2.579   0.556   3.566
 3407SOL    HW110464   2.624   0.618   3.623
 3407SOL    HW210465   2.597   0.470   3.604
 3408SOL     OW10466   3.334   1.194   3.491
 3408SOL    HW110467   3.321   1.207   3.585
 3408SOL    HW210468   3.427   1.210   3.477
 3409SOL     OW10469   2.231   1.741   3.428
 3409SOL    HW110470   2.149   1.788   3.412
 3409SOL    HW210471   2.204   1.659   3.469
 3410SOL     OW10472   3.524   0.878   3.117
 3410SOL    HW110473   3.522   0.791   3.076
 3410SOL    HW210474   3.515   0.939   3.044
 3411SOL     OW10475   3.083   0.321   2.314
 3411SOL    HW110476   3.152   0.255   2.308
 3411SOL    HW210477   3.104   0.372   2.392
 3412SOL     OW10478   2.450   0.735   2.534
 3412SOL    HW110479   2.488   0.821   2.518
 3412SOL    HW210480   2.385   0.724   2.465
 3413SOL     OW10481   3.611   0.369   3.512
 3413SOL    HW110482   3.602   0.381   3.418
 3413SOL    HW210483   3.540   0.309   3.536
 3414SOL     OW10484   3.614   0.932   3.371
 3414SOL    HW110485   3.599   1.026   3.382
 3414SOL    HW210486   3.593   0.915   3.279
 3415SOL     OW10487   2.729   1.365   1.908
 3415SOL    HW110488   2.688   1.395   1.990
 3415SOL    HW210489   2.743   1.445   1.858
 3416SOL     OW10490   2.527   1.782   2.799
 3416SOL    HW110491   2.506   1.874   2.781
 3416SOL    HW210492   2.622   1.777   2.793
 3417SOL     OW10493   2.732   0.973   2.716
 3417SOL    HW110494   2.781   0.899   2.753
 3417SOL    HW210495   2.691   1.014   2.792
 3418SOL     OW10496   2.939   0.989   1.952
 3418SOL    HW110497   2.917   1.040   1.874
 3418SOL    HW210498   3.013   0.934   1.924
 3419SOL     OW10499   3.709   1.555   2.709
 3419SOL    HW110500   3.632   1.539   2.655
 3419SOL    HW210501   3.723   1.473   2.757
 3420SOL     OW10502   2.088   1.297   3.713
 3420SOL    HW110503   2.031   1.228   3.677
 3420SOL    HW210504   2.057   1.310   3.802
 3421SOL     OW10505   1.953   1.229   2.527
 3421SOL    HW110506   1.965   1.184   2.611
 3421SOL    HW210507   2.020   1.190   2.470
 3422SOL     OW10508   2.548   1.411   3.493
 3422SOL    HW110509   2.471   1.366   3.527
 3422SOL    HW210510   2.544   1.499   3.532
 3423SOL     OW10511   3.713   0.190   3.101
 3423SOL    HW110512   3.642   0.129   3.082
 3423SOL    HW210513   3.747   0.215   3.015
 3424SOL     OW10514   2.290   0.429   2.384
 3424SOL    HW110515   2.319   0.356   2.328
 3424SOL    HW210516   2.240   0.387   2.454
 3425SOL     OW10517   3.543   1.492   2.968
 3425SOL    HW110518   3.474   1.467   2.906
 3425SOL    HW210519   3.551   1.416   3.025
 3426SOL     OW10520   2.198   0.565   3.153
 3426SOL    HW110521   2.250   0.506   3.207
 3426SOL    HW210522   2.216   0.538   3.063
 3427SOL     OW10523   2.694   1.580   2.535
 3427SOL    HW110524   2.671   1.646   2.469
 3427SOL    HW210525   2.619   1.521   2.536
 3428SOL     OW10526   3.269   0.214   2.992
 3428SOL    HW110527   3.346   0.176   3.034
 3428SOL    HW210528   3.223   0.259   3.063
 3429SOL     OW10529   2.834   0.060   2.998
 3429SOL    HW110530   2.782   6.996   2.949
 3429SOL    HW210531   2.885   0.007   3.059
 3430SOL     OW10532   2.636   1.334   2.186
 3430SOL    HW110533   2.608   1.243   2.192
 3430SOL    HW210534   2.719   1.338   2.233
 3431SOL     OW10535   2.482   1.557   3.150
 3431SOL    HW110536   2.482   1.639   3.200
 3431SOL    HW210537   2.570   1.552   3.112
 3432SOL     OW10538   3.185   0.011   2.059
 3432SOL    HW110539   3.224   6.943   2.006
 3432SOL    HW210540   3.110   6.969   2.102
 3433SOL     OW10541   3.129   0.454   2.546
 3433SOL    HW110542   3.085   0.539   2.546
 3433SOL    HW210543   3.147   0.436   2.638
 3434SOL     OW10544   3.485   0.261   2.782
 3434SOL    HW110545   3.397   0.235   2.810
 3434SOL    HW210546   3.470   0.318   2.706
 3435SOL     OW10547   1.905   1.064   2.172
 3435SOL    HW110548   1.998   1.055   2.152
 3435SOL    HW210549   1.876   0.975   2.193
 3436SOL     OW10550   2.751   1.663   2.199
 3436SOL    HW110551   2.675   1.646   2.142
 3436SOL    HW210552   2.723   1.735   2.255
 3437SOL     OW10553   2.081   0.625   3.856
 3437SOL    HW110554   1.994   0.617   3.896
 3437SOL    HW210555   2.067   0.604   3.764
 3438SOL     OW10556   2.086   0.306   4.718
 3438SOL    HW110557   2.123   0.263   4.795
 3438SOL    HW210558   2.008   0.254   4.696
 3439SOL     OW10559   1.871   0.398   4.354
 3439SOL    HW110560   1.786   0.413   4.396
 3439SOL    HW210561   1.853   0.331   4.288
 3440SOL     OW10562   2.431   1.300   4.910
 3440SOL    HW110563   2.345   1.305   4.868
 3440SOL    HW210564   2.448   1.388   4.942
 3441SOL     OW10565   3.434   1.513   4.434
 3441SOL    HW110566   3.391   1.490   4.516
 3441SOL    HW210567   3.363   1.517   4.370
 3442SOL     OW10568   2.995   0.700   4.418
 3442SOL    HW110569   3.043   0.782   4.406
 3442SOL    HW210570   2.947   0.712   4.500
 3443SOL     OW10571   3.643   0.599   3.947
 3443SOL    HW110572   3.617   0.595   3.855
 3443SOL    HW210573   3.601   0.523   3.987
 3444SOL     OW10574   2.603   1.136   4.772
 3444SOL    HW110575   2.539   1.175   4.831
 3444SOL    HW210576   2.645   1.211   4.729
 3445SOL     OW10577   2.737   0.760   5.549
 3445SOL    HW110578   2.726   0.830   5.613
 3445SOL    HW210579   2.760   0.805   5.467
 3446SOL     OW10580   2.548   0.997   4.367
 3446SOL    HW110581   2.614   0.990   4.436
 3446SOL    HW210582   2.480   1.052   4.405
 3447SOL     OW10583   2.576   1.149   5.544
 3447SOL    HW110584   2.624   1.225   5.576
 3447SOL    HW210585   2.497   1.185   5.504
 3448SOL     OW10586   2.194   1.415   4.791
 3448SOL    HW110587   2.119   1.375   4.746
 3448SOL    HW210588   2.237   1.467   4.723
 3449SOL     OW10589   3.321   1.503   5.087
 3449SOL    HW110590   3.375   1.581   5.097
 3449SOL    HW210591   3.252   1.514   5.152
 3450SOL     OW10592   2.304   0.399   5.204
 3450SOL    HW110593   2.387   0.351   5.213
 3450SOL    HW210594   2.237   0.331   5.212
 3451SOL     OW10595   3.475   0.456   4.451
 3451SOL    HW110596   3.422   0.485   4.377
 3451SOL    HW210597   3.470   0.528   4.514
 3452SOL     OW10598   2.081   1.717   4.192
 3452SOL    HW110599   2.103   1.791   4.248
 3452SOL    HW210600   2.156   1.709   4.133
 3453SOL     OW10601   3.000   1.343   5.419
 3453SOL    HW110602   3.042   1.336   5.505
 3453SOL    HW210603   2.948   1.263   5.411
 3454SOL     OW10604   2.096   1.446   4.261
 3454SOL    HW110605   2.075   1.540   4.262
 3454SOL    HW210606   2.038   1.408   4.327
 3455SOL     OW10607   2.131   1.092   4.614
 3455SOL    HW110608   2.128   1.004   4.650
 3455SOL    HW210609   2.073   1.143   4.670
 3456SOL     OW10610   2.460   1.794   5.148
 3456SOL    HW110611   2.380   1.775   5.198
 3456SOL    HW210612   2.487   1.881   5.177
 3457SOL     OW10613   2.438   0.986   3.865
 3457SOL    HW110614   2.488   1.029   3.796
 3457SOL    HW210615   2.477   1.017   3.947
 3458SOL     OW10616   3.435   0.128   5.162
 3458SOL    HW110617   3.461   0.217   5.139
 3458SOL    HW210618   3.444   0.125   5.258
 3459SOL     OW10619   1.982   0.658   4.285
 3459SOL    HW110620   1.954   0.569   4.307
 3459SOL    HW210621   1.973   0.706   4.367
 3460SOL     OW10622   3.710   1.744   4.044
 3460SOL    HW110623   3.773   1.719   4.111
 3460SOL    HW210624   3.724   1.838   4.032
 3461SOL     OW10625   1.903   1.588   3.843
 3461SOL    HW110626   1.884   1.497   3.863
 3461SOL    HW210627   1.876   1.637   3.921
 3462SOL     OW10628   3.551   0.919   4.371
 3462SOL    HW110629   3.634   0.875   4.350
 3462SOL    HW210630   3.531   0.969   4.292
 3463SOL     OW10631   3.514   1.102   4.153
 3463SOL    HW110632   3.601   1.100   4.114
 3463SOL    HW210633   3.521   1.166   4.224
 3464SOL     OW10634   1.984   0.751   5.304
 3464SOL    HW110635   2.073   0.785   5.308
 3464SOL    HW210636   1.928   0.829   5.304
 3465SOL     OW10637   2.480   1.392   4.459
 3465SOL    HW110638   2.435   1.308   4.467
 3465SOL    HW210639   2.463   1.419   4.368
 3466SOL     OW10640   3.146   1.235   5.144
 3466SOL    HW110641   3.176   1.166   5.084
 3466SOL    HW210642   3.206   1.230   5.218
 3467SOL     OW10643   2.689   0.027   4.246
 3467SOL    HW110644   2.722   0.114   4.225
 3467SOL    HW210645   2.594   0.037   4.247
 3468SOL     OW10646   2.049   0.960   5.006
 3468SOL    HW110647   2.136   0.922   4.990
 3468SOL    HW210648   1.992   0.914   4.944
 3469SOL     OW10649   3.394   1.001   3.925
 3469SOL    HW110650   3.324   0.944   3.957
 3469SOL    HW210651   3.437   1.034   4.004
 3470SOL     OW10652   3.043   1.815   5.351
 3470SOL    HW110653   3.050   1.877   5.278
 3470SOL    HW210654   3.063   1.730   5.312
 3471SOL     OW10655   2.182   0.269   5.507
 3471SOL    HW110656   2.239   0.332   5.552
 3471SOL    HW210657   2.102   0.267   5.560
 3472SOL     OW10658   3.330   1.418   4.670
 3472SOL    HW110659   3.264   1.435   4.737
 3472SOL    HW210660   3.316   1.327   4.644
 3473SOL     OW10661   3.521   1.747   4.299
 3473SOL    HW110662   3.493   1.716   4.212
 3473SOL    HW210663   3.500   1.675   4.358
 3474SOL     OW10664   2.454   0.714   3.994
 3474SOL    HW110665   2.456   0.800   3.951
 3474SOL    HW210666   2.389   0.724   4.064
 3475SOL     OW10667   3.145   0.376   4.675
 3475SOL    HW110668   3.053   0.351   4.681
 3475SOL    HW210669   3.189   0.322   4.741
 3476SOL     OW10670   3.442   1.668   4.037
 3476SOL    HW110671   3.535   1.691   4.027
 3476SOL    HW210672   3.410   1.657   3.947
 3477SOL     OW10673   2.655   0.622   5.176
 3477SOL    HW110674   2.629   0.592   5.263
 3477SOL    HW210675   2.622   0.554   5.117
 3478SOL     OW10676   3.258   0.480   5.404
 3478SOL    HW110677   3.262   0.520   5.491
 3478SOL    HW210678   3.310   0.400   5.412
 3479SOL     OW10679   2.811   0.885   5.311
 3479SOL    HW110680   2.866   0.818   5.271
 3479SOL    HW210681   2.762   0.922   5.238
 3480SOL     OW10682   2.856   0.414   4.954
 3480SOL    HW110683   2.769   0.433   4.989
 3480SOL    HW210684   2.840   0.369   4.872
 3481SOL     OW10685   2.917   0.699   4.148
 3481SOL    HW110686   2.935   0.693   4.242
 3481SOL    HW210687   2.833   0.655   4.137
 3482SOL     OW10688   1.949   0.824   4.502
 3482SOL    HW110689   2.030   0.817   4.553
 3482SOL    HW210690   1.904   0.900   4.539
 3483SOL     OW10691   1.985   1.873   5.309
 3483SOL    HW110692   1.991   1.850   5.401
 3483SOL    HW210693   1.901   1.839   5.280
 3484SOL     OW10694   2.751   0.355   3.924
 3484SOL    HW110695   2.798   0.410   3.861
 3484SOL    HW210696   2.718   0.282   3.872
 3485SOL     OW10697   3.564   0.569   5.554
 3485SOL    HW110698   3.530   0.644   5.505
 3485SOL    HW210699   3.588   0.506   5.487
 3486SOL     OW10700   3.245   1.142   4.264
 3486SOL    HW110701   3.324   1.132   4.211
 3486SOL    HW210702   3.191   1.204   4.214
 3487SOL     OW10703   2.363   0.186   4.635
 3487SOL    HW110704   2.402   0.219   4.716
 3487SOL    HW210705   2.384   0.252   4.569
 3488SOL     OW10706   2.859   1.444   4.191
 3488SOL    HW110707   2.830   1.520   4.141
 3488SOL    HW210708   2.836   1.463   4.281
 3489SOL     OW10709   2.216   1.815   4.596
 3489SOL    HW110710   2.260   1.731   4.602
 3489SOL    HW210711   2.284   1.880   4.615
 3490SOL     OW10712   3.663   1.051   4.597
 3490SOL    HW110713   3.610   1.031   4.520
 3490SOL    HW210714   3.599   1.058   4.668
 3491SOL     OW10715   3.088   1.541   5.237
 3491SOL    HW110716   3.076   1.469   5.299
 3491SOL    HW210717   3.019   1.528   5.172
 3492SOL     OW10718   2.173   0.961   3.980
 3492SOL    HW110719   2.256   0.979   3.935
 3492SOL    HW210720   2.146   0.876   3.944
 3493SOL     OW10721   3.344   0.751   4.446
 3493SOL    HW110722   3.340   0.713   4.533
 3493SOL    HW210723   3.421   0.808   4.447
 3494SOL     OW10724   2.334   1.269   5.462
 3494SOL    HW110725   2.307   1.274   5.370
 3494SOL    HW210726   2.251   1.266   5.510
 3495SOL     OW10727   2.982   1.776   3.950
 3495SOL    HW110728   2.906   1.737   3.994
 3495SOL    HW210729   3.008   1.711   3.885
 3496SOL     OW10730   2.049   0.268   5.246
 3496SOL    HW110731   1.998   0.349   5.235
 3496SOL    HW210732   2.081   0.272   5.336
 3497SOL     OW10733   3.492   1.379   3.806
 3497SOL    HW110734   3.448   1.464   3.801
 3497SOL    HW210735   3.422   1.316   3.790
 3498SOL     OW10736   2.324   1.737   4.042
 3498SOL    HW110737   2.369   1.792   4.106
 3498SOL    HW210738   2.393   1.701   3.988
 3499SOL     OW10739   3.286   0.140   4.149
 3499SOL    HW110740   3.275   0.092   4.067
 3499SOL    HW210741   3.381   0.142   4.163
 3500SOL     OW10742   2.118   1.790   4.951
 3500SOL    HW110743   2.167   1.719   4.992
 3500SOL    HW210744   2.110   1.764   4.859
 3501SOL     OW10745   2.801   1.701   4.620
 3501SOL    HW110746   2.881   1.652   4.643
 3501SOL    HW210747   2.762   1.649   4.549
 3502SOL     OW10748   2.259   0.691   4.196
 3502SOL    HW110749   2.276   0.598   4.209
 3502SOL    HW210750   2.166   0.702   4.214
 3503SOL     OW10751   3.384   0.228   5.447
 3503SOL    HW110752   3.406   0.230   5.540
 3503SOL    HW210753   3.294   0.195   5.444
 3504SOL     OW10754   2.516   0.112   3.822
 3504SOL    HW110755   2.549   0.041   3.876
 3504SOL    HW210756   2.450   0.071   3.766
 3505SOL     OW10757   2.628   0.280   5.492
 3505SOL    HW110758   2.712   0.235   5.483
 3505SOL    HW210759   2.581   0.229   5.558
 3506SOL     OW10760   2.736   1.523   4.919
 3506SOL    HW110761   2.719   1.484   4.833
 3506SOL    HW210762   2.806   1.468   4.956
 3507SOL     OW10763   3.202   0.592   5.159
 3507SOL    HW110764   3.233   0.562   5.244
 3507SOL    HW210765   3.239   0.680   5.151
 3508SOL     OW10766   2.681   1.387   4.672
 3508SOL    HW110767   2.767   1.377   4.630
 3508SOL    HW210768   2.619   1.395   4.600
 3509SOL     OW10769   2.793   0.513   4.620
 3509SOL    HW110770   2.765   0.506   4.528
 3509SOL    HW210771   2.822   0.425   4.642
 3510SOL     OW10772   2.422   0.066   4.218
 3510SOL    HW110773   2.343   0.055   4.271
 3510SOL    HW210774   2.399   0.135   4.156
 3511SOL     OW10775   3.288   1.200   3.762
 3511SOL    HW110776   3.319   1.126   3.814
 3511SOL    HW210777   3.203   1.222   3.800
 3512SOL     OW10778   2.182   0.060   3.911
 3512SOL    HW110779   2.227   0.141   3.938
 3512SOL    HW210780   2.211   6.995   3.976
 3513SOL     OW10781   2.808   0.268   4.179
 3513SOL    HW110782   2.784   0.299   4.092
 3513SOL    HW210783   2.904   0.277   4.182
 3514SOL     OW10784   2.944   0.687   5.179
 3514SOL    HW110785   2.880   0.617   5.192
 3514SOL    HW210786   3.029   0.643   5.177
 3515SOL     OW10787   3.081   1.574   4.518
 3515SOL    HW110788   3.095   1.639   4.449
 3515SOL    HW210789   3.149   1.592   4.583
 3516SOL     OW10790   2.336   1.155   4.448
 3516SOL    HW110791   2.271   1.134   4.514
 3516SOL    HW210792   2.290   1.143   4.365
 3517SOL     OW10793   3.126   1.793   4.334
 3517SOL    HW110794   3.175   1.856   4.280
 3517SOL    HW210795   3.058   1.846   4.376
 3518SOL     OW10796   2.883   0.532   3.757
 3518SOL    HW110797   2.840   0.616   3.738
 3518SOL    HW210798   2.948   0.553   3.823
 3519SOL     OW10799   1.953   0.545   5.127
 3519SOL    HW110800   2.043   0.552   5.094
 3519SOL    HW210801   1.944   0.619   5.187
 3520SOL     OW10802   2.429   0.245   4.902
 3520SOL    HW110803   2.471   0.171   4.946
 3520SOL    HW210804   2.337   0.239   4.928
 3521SOL     OW10805   2.727   0.466   4.361
 3521SOL    HW110806   2.681   0.521   4.298
 3521SOL    HW210807   2.752   0.388   4.311
 3522SOL     OW10808   2.828   0.023   4.494
 3522SOL    HW110809   2.772   0.026   4.416
 3522SOL    HW210810   2.884   6.947   4.480
 3523SOL     OW10811   3.301   1.159   4.581
 3523SOL    HW110812   3.230   1.095   4.585
 3523SOL    HW210813   3.321   1.166   4.488
 3524SOL     OW10814   3.327   0.612   4.689
 3524SOL    HW110815   3.270   0.535   4.694
 3524SOL    HW210816   3.386   0.604   4.764
 3525SOL     OW10817   3.699   0.807   4.111
 3525SOL    HW110818   3.759   0.760   4.169
 3525SOL    HW210819   3.677   0.744   4.042
 3526SOL     OW10820   2.351   1.422   3.875
 3526SOL    HW110821   2.275   1.394   3.926
 3526SOL    HW210822   2.347   1.370   3.795
 3527SOL     OW10823   3.543   1.265   4.362
 3527SOL    HW110824   3.637   1.264   4.379
 3527SOL    HW210825   3.514   1.354   4.387
 3528SOL     OW10826   3.257   0.574   3.798
 3528SOL    HW110827   3.194   0.552   3.866
 3528SOL    HW210828   3.342   0.559   3.838
 3529SOL     OW10829   2.372   0.255   4.019
 3529SOL    HW110830   2.437   0.218   3.960
 3529SOL    HW210831   2.353   0.342   3.984
 3530SOL     OW10832   3.609   1.243   5.281
 3530SOL    HW110833   3.696   1.205   5.274
 3530SOL    HW210834   3.624   1.332   5.312
 3531SOL     OW10835   2.915   1.353   5.054
 3531SOL    HW110836   2.839   1.321   5.104
 3531SOL    HW210837   2.990   1.311   5.097
 3532SOL     OW10838   3.471   1.628   5.383
 3532SOL    HW110839   3.463   1.663   5.294
 3532SOL    HW210840   3.552   1.578   5.382
 3533SOL     OW10841   2.999   1.212   4.825
 3533SOL    HW110842   2.939   1.250   4.889
 3533SOL    HW210843   2.969   1.248   4.741
 3534SOL     OW10844   3.484   1.096   4.799
 3534SOL    HW110845   3.477   1.159   4.871
 3534SOL    HW210846   3.409   1.115   4.743
 3535SOL     OW10847   2.750   0.150   5.115
 3535SOL    HW110848   2.770   0.121   5.026
 3535SOL    HW210849   2.835   0.175   5.152
 3536SOL     OW10850   2.846   1.116   5.447
 3536SOL    HW110851   2.755   1.132   5.472
 3536SOL    HW210852   2.842   1.037   5.393
 3537SOL     OW10853   2.573   1.064   4.095
 3537SOL    HW110854   2.558   1.043   4.187
 3537SOL    HW210855   2.648   1.010   4.070
 3538SOL     OW10856   2.285   0.822   4.976
 3538SOL    HW110857   2.353   0.831   5.043
 3538SOL    HW210858   2.250   0.734   4.988
 3539SOL     OW10859   3.120   0.374   5.016
 3539SOL    HW110860   3.154   0.453   5.059
 3539SOL    HW210861   3.030   0.397   4.993
 3540SOL     OW10862   1.938   1.574   5.082
 3540SOL    HW110863   1.910   1.646   5.025
 3540SOL    HW210864   2.033   1.572   5.074
 3541SOL     OW10865   2.195   1.122   4.213
 3541SOL    HW110866   2.197   1.195   4.151
 3541SOL    HW210867   2.194   1.044   4.157
 3542SOL     OW10868   2.413   0.533   4.581
 3542SOL    HW110869   2.427   0.592   4.507
 3542SOL    HW210870   2.481   0.557   4.644
 3543SOL     OW10871   3.109   1.351   4.114
 3543SOL    HW110872   3.164   1.422   4.148
 3543SOL    HW210873   3.021   1.371   4.148
 3544SOL     OW10874   3.154   1.462   4.873
 3544SOL    HW110875   3.209   1.468   4.951
 3544SOL    HW210876   3.099   1.385   4.889
 3545SOL     OW10877   3.432   0.622   4.211
 3545SOL    HW110878   3.384   0.673   4.276
 3545SOL    HW210879   3.482   0.686   4.161
 3546SOL     OW10880   2.207   1.531   5.032
 3546SOL    HW110881   2.197   1.484   4.949
 3546SOL    HW210882   2.302   1.542   5.042
 3547SOL     OW10883   2.285   0.741   5.331
 3547SOL    HW110884   2.344   0.788   5.272
 3547SOL    HW210885   2.329   0.658   5.348
 3548SOL     OW10886   3.473   0.782   5.413
 3548SOL    HW110887   3.387   0.823   5.407
 3548SOL    HW210888   3.525   0.824   5.344
 3549SOL     OW10889   2.861   0.133   5.453
 3549SOL    HW110890   2.903   0.163   5.373
 3549SOL    HW210891   2.860   0.038   5.446
 3550SOL     OW10892   2.324   0.032   5.484
 3550SOL    HW110893   2.251   6.970   5.494
 3550SOL    HW210894   2.283   0.118   5.486
 3551SOL     OW10895   2.448   0.877   4.756
 3551SOL    HW110896   2.483   0.966   4.760
 3551SOL    HW210897   2.391   0.869   4.832
 3552SOL     OW10898   3.204   0.859   4.741
 3552SOL    HW110899   3.116   0.840   4.708
 3552SOL    HW210900   3.252   0.776   4.732
 3553SOL     OW10901   3.061   0.528   3.985
 3553SOL    HW110902   3.069   0.450   4.039
 3553SOL    HW210903   3.018   0.592   4.042
 3554SOL     OW10904   2.166   0.209   4.973
 3554SOL    HW110905   2.103   0.214   5.045
 3554SOL    HW210906   2.158   0.119   4.940
 3555SOL     OW10907   1.909   1.312   4.997
 3555SOL    HW110908   1.940   1.256   5.068
 3555SOL    HW210909   1.914   1.401   5.033
 3556SOL     OW10910   2.585   0.634   4.774
 3556SOL    HW110911   2.661   0.622   4.717
 3556SOL    HW210912   2.554   0.722   4.755
 3557SOL     OW10913   3.604   0.960   5.585
 3557SOL    HW110914   3.560   0.892   5.533
 3557SOL    HW210915   3.542   0.979   5.656
 3558SOL     OW10916   2.183   0.059   4.347
 3558SOL    HW110917   2.162   0.147   4.378
 3558SOL    HW210918   2.125   0.002   4.398
 3559SOL     OW10919   3.484   0.397   4.060
 3559SOL    HW110920   3.513   0.325   4.116
 3559SOL    HW210921   3.455   0.465   4.122
 3560SOL     OW10922   2.894   0.760   4.682
 3560SOL    HW110923   2.882   0.776   4.776
 3560SOL    HW210924   2.866   0.669   4.670
 3561SOL     OW10925   2.842   1.566   5.447
 3561SOL    HW110926   2.827   1.610   5.363
 3561SOL    HW210927   2.886   1.484   5.424
 3562SOL     OW10928   3.711   1.499   5.328
 3562SOL    HW110929   3.734   1.528   5.239
 3562SOL    HW210930   3.791   1.513   5.379
 3563SOL     OW10931   2.213   0.916   5.533
 3563SOL    HW110932   2.293   0.936   5.583
 3563SOL    HW210933   2.242   0.852   5.468
 3564SOL     OW10934   3.403   0.229   3.856
 3564SOL    HW110935   3.308   0.229   3.870
 3564SOL    HW210936   3.437   0.288   3.923
 3565SOL     OW10937   3.146   0.823   3.751
 3565SOL    HW110938   3.188   0.737   3.756
 3565SOL    HW210939   3.180   0.861   3.669
 3566SOL     OW10940   2.932   1.341   4.581
 3566SOL    HW110941   2.938   1.269   4.519
 3566SOL    HW210942   2.990   1.409   4.546
 3567SOL     OW10943   2.171   0.814   4.669
 3567SOL    HW110944   2.264   0.834   4.663
 3567SOL    HW210945   2.168   0.724   4.700
 3568SOL     OW10946   2.196   0.544   4.737
 3568SOL    HW110947   2.157   0.458   4.724
 3568SOL    HW210948   2.273   0.544   4.680
 3569SOL     OW10949   2.988   0.421   5.389
 3569SOL    HW110950   2.944   0.456   5.467
 3569SOL    HW210951   3.080   0.444   5.401
 3570SOL     OW10952   2.993   0.219   5.216
 3570SOL    HW110953   2.993   0.296   5.273
 3570SOL    HW210954   3.051   0.242   5.143
 3571SOL     OW10955   1.872   1.315   3.916
 3571SOL    HW110956   1.784   1.332   3.881
 3571SOL    HW210957   1.866   1.226   3.952
 3572SOL     OW10958   1.952   1.780   4.666
 3572SOL    HW110959   1.921   1.703   4.618
 3572SOL    HW210960   2.041   1.795   4.634
 3573SOL     OW10961   2.352   1.574   4.627
 3573SOL    HW110962   2.421   1.636   4.651
 3573SOL    HW210963   2.395   1.512   4.569
 3574SOL     OW10964   2.833   0.787   4.946
 3574SOL    HW110965   2.893   0.767   5.019
 3574SOL    HW210966   2.750   0.747   4.972
 3575SOL     OW10967   1.898   0.549   4.845
 3575SOL    HW110968   1.973   0.535   4.788
 3575SOL    HW210969   1.935   0.546   4.934
 3576SOL     OW10970   2.046   0.533   5.455
 3576SOL    HW110971   2.126   0.514   5.407
 3576SOL    HW210972   2.007   0.607   5.409
 3577SOL     OW10973   3.244   0.932   5.381
 3577SOL    HW110974   3.265   1.025   5.377
 3577SOL    HW210975   3.240   0.904   5.289
 3578SOL     OW10976   2.680   0.576   4.091
 3578SOL    HW110977   2.686   0.500   4.033
 3578SOL    HW210978   2.604   0.624   4.059
 3579SOL     OW10979   3.502   0.603   4.901
 3579SOL    HW110980   3.489   0.543   4.975
 3579SOL    HW210981   3.590   0.584   4.869
 3580SOL     OW10982   2.098   1.548   5.446
 3580SOL    HW110983   2.077   1.612   5.514
 3580SOL    HW210984   2.107   1.465   5.493
 3581SOL     OW10985   2.579   0.458   4.978
 3581SOL    HW110986   2.523   0.385   4.953
 3581SOL    HW210987   2.572   0.520   4.906
 3582SOL     OW10988   2.782   1.678   5.196
 3582SOL    HW110989   2.758   1.638   5.113
 3582SOL    HW210990   2.778   1.772   5.180
 3583SOL     OW10991   2.320   0.491   3.896
 3583SOL    HW110992   2.380   0.561   3.923
 3583SOL    HW210993   2.234   0.534   3.890
 3584SOL     OW10994   2.001   1.144   5.199
 3584SOL    HW110995   2.004   1.098   5.283
 3584SOL    HW210996   2.019   1.076   5.134
 3585SOL     OW10997   3.181   1.042   4.941
 3585SOL    HW110998   3.201   0.979   4.872
 3585SOL    HW210999   3.116   1.100   4.902
 3586SOL     OW11000   3.180   0.857   4.026
 3586SOL    HW111001   3.107   0.826   4.080
 3586SOL    HW211002   3.151   0.843   3.936
 3587SOL     OW11003   3.642   1.735   4.882
 3587SOL    HW111004   3.702   1.761   4.812
 3587SOL    HW211005   3.615   1.646   4.858
 3588SOL     OW11006   3.101   1.731   4.824
 3588SOL    HW111007   3.184   1.757   4.785
 3588SOL    HW211008   3.113   1.639   4.847
 3589SOL     OW11009   1.951   1.264   4.734
 3589SOL    HW111010   1.933   1.280   4.826
 3589SOL    HW211011   1.879   1.209   4.704
 3590SOL     OW11012   2.542   1.673   5.465
 3590SOL    HW111013   2.482   1.747   5.456
 3590SOL    HW211014   2.613   1.690   5.404
 3591SOL     OW11015   3.569   0.174   4.194
 3591SOL    HW111016   3.649   0.155   4.144
 3591SOL    HW211017   3.572   0.113   4.267
 3592SOL     OW11018   3.254   1.568   4.216
 3592SOL    HW111019   3.312   1.602   4.149
 3592SOL    HW211020   3.204   1.644   4.245
 3593SOL     OW11021   2.004   1.796   5.567
 3593SOL    HW111022   1.954   1.728   5.613
 3593SOL    HW211023   2.051   1.843   5.635
 3594SOL     OW11024   3.140   0.929   4.393
 3594SOL    HW111025   3.214   0.870   4.406
 3594SOL    HW211026   3.175   1.001   4.340
 3595SOL     OW11027   2.664   1.278   5.146
 3595SOL    HW111028   2.637   1.320   5.228
 3595SOL    HW211029   2.593   1.296   5.085
 3596SOL     OW11030   2.529   1.628   3.880
 3596SOL    HW111031   2.542   1.642   3.786
 3596SOL    HW211032   2.474   1.550   3.885
 3597SOL     OW11033   3.480   1.729   5.116
 3597SOL    HW111034   3.534   1.733   5.037
 3597SOL    HW211035   3.466   1.820   5.140
 3598SOL     OW11036   3.733   0.159   4.676
 3598SOL    HW111037   3.719   0.065   4.683
 3598SOL    HW211038   3.645   0.195   4.663
 3599SOL     OW11039   2.122   0.312   4.437
 3599SOL    HW111040   2.036   0.347   4.415
 3599SOL    HW211041   2.125   0.314   4.533
 3600SOL     OW11042   3.073   1.598   3.756
 3600SOL    HW111043   3.060   1.508   3.786
 3600SOL    HW211044   3.004   1.612   3.691
 3601SOL     OW11045   2.685   1.008   5.101
 3601SOL    HW111046   2.729   1.000   5.016
 3601SOL    HW211047   2.681   1.102   5.117
 3602SOL     OW11048   2.779   0.911   4.014
 3602SOL    HW111049   2.840   0.944   3.948
 3602SOL    HW211050   2.829   0.843   4.060
 3603SOL     OW11051   3.353   1.625   3.769
 3603SOL    HW111052   3.258   1.617   3.757
 3603SOL    HW211053   3.387   1.642   3.682
 3604SOL     OW11054   2.229   1.306   5.217
 3604SOL    HW111055   2.216   1.382   5.160
 3604SOL    HW211056   2.151   1.251   5.201
 3605SOL     OW11057   3.469   1.286   5.003
 3605SOL    HW111058   3.527   1.267   5.078
 3605SOL    HW211059   3.409   1.352   5.036
 3606SOL     OW11060   2.926   1.112   4.436
 3606SOL    HW111061   2.853   1.062   4.473
 3606SOL    HW211062   2.990   1.045   4.411
 3607SOL     OW11063   2.890   0.248   4.669
 3607SOL    HW111064   2.866   0.196   4.592
 3607SOL    HW211065   2.876   0.188   4.743
 3608SOL     OW11066   2.469   1.487   4.202
 3608SOL    HW111067   2.518   1.438   4.137
 3608SOL    HW211068   2.391   1.518   4.156
 3609SOL     OW11069   3.592   0.389   5.101
 3609SOL    HW111070   3.662   0.454   5.106
 3609SOL    HW211071   3.630   0.318   5.049
 3610SOL     OW11072   2.126   1.342   4.018
 3610SOL    HW111073   2.034   1.337   3.992
 3610SOL    HW211074   2.125   1.383   4.105
 3611SOL     OW11075   1.977   1.036   5.451
 3611SOL    HW111076   1.901   1.008   5.501
 3611SOL    HW211077   2.051   0.991   5.492
 3612SOL     OW11078   2.527   0.240   5.237
 3612SOL    HW111079   2.604   0.218   5.185
 3612SOL    HW211080   2.561   0.272   5.320
 3613SOL     OW11081   1.937   0.332   3.760
 3613SOL    HW111082   1.845   0.316   3.739
 3613SOL    HW211083   1.961   0.409   3.708
 3614SOL     OW11084   3.287   0.859   5.121
 3614SOL    HW111085   3.236   0.919   5.066
 3614SOL    HW211086   3.375   0.861   5.084
 3615SOL     OW11087   1.930   0.175   4.033
 3615SOL    HW111088   1.940   0.240   3.963
 3615SOL    HW211089   1.976   0.098   4.001
 3616SOL     OW11090   3.039   1.333   3.842
 3616SOL    HW111091   2.949   1.301   3.844
 3616SOL    HW211092   3.066   1.335   3.934
 3617SOL     OW11093   2.483   0.832   5.160
 3617SOL    HW111094   2.540   0.908   5.145
 3617SOL    HW211095   2.543   0.758   5.168
 3618SOL     OW11096   3.345   1.788   4.707
 3618SOL    HW111097   3.367   1.858   4.645
 3618SOL    HW211098   3.430   1.760   4.742
 3619SOL     OW11099   2.578   0.557   5.427
 3619SOL    HW111100   2.623   0.620   5.484
 3619SOL    HW211101   2.597   0.472   5.466
 3620SOL     OW11102   3.335   1.193   5.351
 3620SOL    HW111103   3.324   1.209   5.445
 3620SOL    HW211104   3.427   1.213   5.335
 3621SOL     OW11105   2.230   1.741   5.290
 3621SOL    HW111106   2.148   1.788   5.275
 3621SOL    HW211107   2.204   1.658   5.331
 3622SOL     OW11108   3.525   0.879   4.979
 3622SOL    HW111109   3.522   0.794   4.936
 3622SOL    HW211110   3.515   0.943   4.908
 3623SOL     OW11111   3.082   0.322   4.175
 3623SOL    HW111112   3.151   0.256   4.170
 3623SOL    HW211113   3.104   0.372   4.253
 3624SOL     OW11114   2.451   0.734   4.395
 3624SOL    HW111115   2.489   0.820   4.381
 3624SOL    HW211116   2.385   0.725   4.326
 3625SOL     OW11117   3.611   0.368   5.375
 3625SOL    HW111118   3.602   0.381   5.280
 3625SOL    HW211119   3.539   0.308   5.398
 3626SOL     OW11120   3.612   0.933   5.234
 3626SOL    HW111121   3.599   1.027   5.247
 3626SOL    HW211122   3.592   0.919   5.142
 3627SOL     OW11123   2.726   1.364   3.771
 3627SOL    HW111124   2.689   1.384   3.857
 3627SOL    HW211125   2.737   1.450   3.730
 3628SOL     OW11126   2.525   1.782   4.659
 3628SOL    HW111127   2.507   1.874   4.642
 3628SOL    HW211128   2.621   1.775   4.655
 3629SOL     OW11129   2.732   0.973   4.577
 3629SOL    HW111130   2.782   0.900   4.615
 3629SOL    HW211131   2.691   1.015   4.653
 3630SOL     OW11132   2.940   0.991   3.812
 3630SOL    HW111133   2.918   1.041   3.734
 3630SOL    HW211134   3.012   0.934   3.785
 3631SOL     OW11135   3.707   1.552   4.565
 3631SOL    HW111136   3.627   1.542   4.513
 3631SOL    HW211137   3.695   1.493   4.640
 3632SOL     OW11138   2.088   1.297   5.576
 3632SOL    HW111139   2.029   1.231   5.542
 3632SOL    HW211140   2.060   1.310   5.667
 3633SOL     OW11141   1.954   1.228   4.389
 3633SOL    HW111142   1.966   1.185   4.473
 3633SOL    HW211143   2.020   1.189   4.332
 3634SOL     OW11144   2.547   1.410   5.355
 3634SOL    HW111145   2.469   1.367   5.390
 3634SOL    HW211146   2.545   1.498   5.393
 3635SOL     OW11147   3.713   0.191   4.963
 3635SOL    HW111148   3.643   0.128   4.942
 3635SOL    HW211149   3.747   0.218   4.877
 3636SOL     OW11150   2.290   0.429   4.245
 3636SOL    HW111151   2.319   0.356   4.190
 3636SOL    HW211152   2.240   0.387   4.316
 3637SOL     OW11153   3.561   1.484   4.812
 3637SOL    HW111154   3.480   1.465   4.763
 3637SOL    HW211155   3.564   1.416   4.879
 3638SOL     OW11156   2.197   0.565   5.015
 3638SOL    HW111157   2.250   0.506   5.069
 3638SOL    HW211158   2.216   0.538   4.925
 3639SOL     OW11159   2.695   1.579   4.398
 3639SOL    HW111160   2.671   1.645   4.334
 3639SOL    HW211161   2.620   1.519   4.401
 3640SOL     OW11162   3.270   0.214   4.855
 3640SOL    HW111163   3.347   0.176   4.897
 3640SOL    HW211164   3.223   0.260   4.925
 3641SOL     OW11165   2.834   0.060   4.859
 3641SOL    HW111166   2.781   6.996   4.812
 3641SOL    HW211167   2.885   0.007   4.921
 3642SOL     OW11168   2.639   1.333   4.042
 3642SOL    HW111169   2.612   1.242   4.053
 3642SOL    HW211170   2.718   1.341   4.096
 3643SOL     OW11171   2.481   1.557   5.011
 3643SOL    HW111172   2.481   1.639   5.059
 3643SOL    HW211173   2.570   1.550   4.975
 3644SOL     OW11174   3.184   0.013   3.917
 3644SOL    HW111175   3.222   6.941   3.866
 3644SOL    HW211176   3.110   6.973   3.963
 3645SOL     OW11177   3.129   0.453   4.408
 3645SOL    HW111178   3.085   0.538   4.408
 3645SOL    HW211179   3.147   0.436   4.500
 3646SOL     OW11180   3.484   0.259   4.642
 3646SOL    HW111181   3.397   0.238   4.674
 3646SOL    HW211182   3.469   0.318   4.568
 3647SOL     OW11183   1.904   1.064   4.033
 3647SOL    HW111184   1.998   1.055   4.014
 3647SOL    HW211185   1.876   0.975   4.055
 3648SOL     OW11186   2.750   1.661   4.060
 3648SOL    HW111187   2.674   1.646   4.004
 3648SOL    HW211188   2.724   1.733   4.118
 3649SOL     OW11189   2.081   0.623   5.718
 3649SOL    HW111190   1.994   0.617   5.758
 3649SOL    HW211191   2.067   0.603   5.626
 3650SOL     OW11192   2.077   0.312   6.584
 3650SOL    HW111193   2.117   0.267   6.659
 3650SOL    HW211194   2.001   0.258   6.561
 3651SOL     OW11195   1.870   0.397   6.217
 3651SOL    HW111196   1.786   0.415   6.259
 3651SOL    HW211197   1.850   0.330   6.151
 3652SOL     OW11198   2.423   1.288   6.758
 3652SOL    HW111199   2.340   1.306   6.715
 3652SOL    HW211200   2.445   1.369   6.804
 3653SOL     OW11201   3.435   1.515   6.295
 3653SOL    HW111202   3.389   1.494   6.376
 3653SOL    HW211203   3.365   1.520   6.229
 3654SOL     OW11204   2.994   0.700   6.282
 3654SOL    HW111205   3.042   0.782   6.271
 3654SOL    HW211206   2.944   0.713   6.363
 3655SOL     OW11207   3.644   0.600   5.808
 3655SOL    HW111208   3.617   0.596   5.716
 3655SOL    HW211209   3.601   0.524   5.849
 3656SOL     OW11210   2.622   1.141   6.637
 3656SOL    HW111211   2.552   1.170   6.695
 3656SOL    HW211212   2.648   1.219   6.589
 3657SOL     OW11213   2.547   0.996   6.229
 3657SOL    HW111214   2.613   0.989   6.298
 3657SOL    HW211215   2.479   1.051   6.267
 3658SOL     OW11216   2.195   1.407   6.645
 3658SOL    HW111217   2.117   1.371   6.603
 3658SOL    HW211218   2.235   1.463   6.579
 3659SOL     OW11219   3.477   0.460   6.312
 3659SOL    HW111220   3.425   0.488   6.236
 3659SOL    HW211221   3.466   0.530   6.376
 3660SOL     OW11222   2.081   1.717   6.053
 3660SOL    HW111223   2.103   1.791   6.110
 3660SOL    HW211224   2.156   1.708   5.995
 3661SOL     OW11225   2.095   1.445   6.123
 3661SOL    HW111226   2.075   1.539   6.124
 3661SOL    HW211227   2.038   1.408   6.189
 3662SOL     OW11228   2.129   1.094   6.480
 3662SOL    HW111229   2.126   1.006   6.517
 3662SOL    HW211230   2.073   1.146   6.537
 3663SOL     OW11231   2.475   1.806   6.981
 3663SOL    HW111232   2.390   1.785   0.020
 3663SOL    HW211233   2.497   1.893   0.016
 3664SOL     OW11234   2.438   0.986   5.727
 3664SOL    HW111235   2.488   1.029   5.658
 3664SOL    HW211236   2.478   1.017   5.809
 3665SOL     OW11237   1.982   0.658   6.147
 3665SOL    HW111238   1.954   0.569   6.169
 3665SOL    HW211239   1.974   0.707   6.229
 3666SOL     OW11240   3.706   1.751   5.914
 3666SOL    HW111241   3.775   1.727   5.976
 3666SOL    HW211242   3.722   1.844   5.896
 3667SOL     OW11243   1.903   1.589   5.705
 3667SOL    HW111244   1.884   1.497   5.725
 3667SOL    HW211245   1.876   1.637   5.784
 3668SOL     OW11246   3.551   0.917   6.230
 3668SOL    HW111247   3.634   0.875   6.208
 3668SOL    HW211248   3.530   0.970   6.153
 3669SOL     OW11249   3.513   1.103   6.016
 3669SOL    HW111250   3.600   1.103   5.975
 3669SOL    HW211251   3.520   1.167   6.087
 3670SOL     OW11252   2.478   1.391   6.320
 3670SOL    HW111253   2.433   1.307   6.329
 3670SOL    HW211254   2.461   1.418   6.230
 3671SOL     OW11255   2.688   0.026   6.102
 3671SOL    HW111256   2.722   0.114   6.084
 3671SOL    HW211257   2.593   0.037   6.107
 3672SOL     OW11258   2.056   0.975   6.845
 3672SOL    HW111259   2.134   0.923   6.828
 3672SOL    HW211260   1.983   0.919   6.819
 3673SOL     OW11261   3.393   1.001   5.787
 3673SOL    HW111262   3.324   0.944   5.820
 3673SOL    HW211263   3.437   1.034   5.866
 3674SOL     OW11264   3.316   1.423   6.529
 3674SOL    HW111265   3.259   1.434   6.605
 3674SOL    HW211266   3.309   1.331   6.506
 3675SOL     OW11267   3.513   1.759   6.161
 3675SOL    HW111268   3.495   1.722   6.075
 3675SOL    HW211269   3.499   1.686   6.222
 3676SOL     OW11270   2.454   0.714   5.856
 3676SOL    HW111271   2.457   0.800   5.813
 3676SOL    HW211272   2.389   0.725   5.926
 3677SOL     OW11273   3.144   0.372   6.539
 3677SOL    HW111274   3.052   0.348   6.544
 3677SOL    HW211275   3.186   0.320   6.607
 3678SOL     OW11276   3.440   1.672   5.897
 3678SOL    HW111277   3.532   1.697   5.889
 3678SOL    HW211278   3.412   1.656   5.807
 3679SOL     OW11279   2.661   0.621   0.049
 3679SOL    HW111280   2.596   0.653   0.112
 3679SOL    HW211281   2.610   0.566   6.989
 3680SOL     OW11282   2.860   0.390   6.798
 3680SOL    HW111283   2.802   0.449   6.847
 3680SOL    HW211284   2.805   0.356   6.728
 3681SOL     OW11285   2.918   0.698   6.010
 3681SOL    HW111286   2.936   0.693   6.104
 3681SOL    HW211287   2.833   0.655   5.999
 3682SOL     OW11288   1.951   0.822   6.365
 3682SOL    HW111289   2.032   0.816   6.417
 3682SOL    HW211290   1.906   0.898   6.400
 3683SOL     OW11291   2.003   1.826   0.125
 3683SOL    HW111292   1.945   1.792   0.194
 3683SOL    HW211293   1.944   1.856   0.056
 3684SOL     OW11294   2.751   0.356   5.786
 3684SOL    HW111295   2.798   0.412   5.724
 3684SOL    HW211296   2.719   0.282   5.733
 3685SOL     OW11297   3.243   1.141   6.123
 3685SOL    HW111298   3.324   1.132   6.073
 3685SOL    HW211299   3.191   1.204   6.074
 3686SOL     OW11300   2.364   0.198   6.498
 3686SOL    HW111301   2.414   0.249   6.562
 3686SOL    HW211302   2.377   0.244   6.415
 3687SOL     OW11303   2.860   1.444   6.052
 3687SOL    HW111304   2.831   1.520   6.001
 3687SOL    HW211305   2.835   1.466   6.142
 3688SOL     OW11306   2.216   1.817   6.458
 3688SOL    HW111307   2.260   1.732   6.464
 3688SOL    HW211308   2.284   1.881   6.475
 3689SOL     OW11309   3.665   1.049   6.456
 3689SOL    HW111310   3.613   1.031   6.377
 3689SOL    HW211311   3.602   1.050   6.527
 3690SOL     OW11312   2.174   0.961   5.842
 3690SOL    HW111313   2.257   0.980   5.798
 3690SOL    HW211314   2.146   0.877   5.805
 3691SOL     OW11315   3.343   0.751   6.305
 3691SOL    HW111316   3.339   0.712   6.393
 3691SOL    HW211317   3.421   0.807   6.307
 3692SOL     OW11318   2.987   1.779   5.813
 3692SOL    HW111319   2.911   1.741   5.856
 3692SOL    HW211320   3.012   1.715   5.746
 3693SOL     OW11321   3.491   1.382   5.677
 3693SOL    HW111322   3.450   1.467   5.663
 3693SOL    HW211323   3.422   1.318   5.655
 3694SOL     OW11324   2.324   1.736   5.905
 3694SOL    HW111325   2.370   1.792   5.968
 3694SOL    HW211326   2.394   1.701   5.849
 3695SOL     OW11327   3.287   0.141   6.012
 3695SOL    HW111328   3.274   0.092   5.930
 3695SOL    HW211329   3.382   0.142   6.024
 3696SOL     OW11330   2.121   1.794   6.812
 3696SOL    HW111331   2.163   1.726   6.865
 3696SOL    HW211332   2.114   1.755   6.725
 3697SOL     OW11333   2.804   1.696   6.481
 3697SOL    HW111334   2.886   1.651   6.496
 3697SOL    HW211335   2.762   1.646   6.410
 3698SOL     OW11336   2.259   0.691   6.058
 3698SOL    HW111337   2.275   0.597   6.071
 3698SOL    HW211338   2.166   0.702   6.076
 3699SOL     OW11339   2.515   0.112   5.685
 3699SOL    HW111340   2.549   0.040   5.738
 3699SOL    HW211341   2.450   0.071   5.628
 3700SOL     OW11342   2.723   1.518   6.765
 3700SOL    HW111343   2.709   1.485   6.676
 3700SOL    HW211344   2.765   1.446   6.811
 3701SOL     OW11345   2.680   1.385   6.524
 3701SOL    HW111346   2.765   1.377   6.481
 3701SOL    HW211347   2.618   1.394   6.451
 3702SOL     OW11348   2.795   0.511   6.483
 3702SOL    HW111349   2.766   0.505   6.392
 3702SOL    HW211350   2.828   0.423   6.503
 3703SOL     OW11351   2.421   0.068   6.083
 3703SOL    HW111352   2.342   0.055   6.135
 3703SOL    HW211353   2.398   0.136   6.020
 3704SOL     OW11354   3.289   1.201   5.624
 3704SOL    HW111355   3.319   1.127   5.676
 3704SOL    HW211356   3.204   1.225   5.661
 3705SOL     OW11357   2.182   0.060   5.773
 3705SOL    HW111358   2.226   0.141   5.798
 3705SOL    HW211359   2.213   6.995   5.836
 3706SOL     OW11360   2.808   0.268   6.042
 3706SOL    HW111361   2.784   0.300   5.955
 3706SOL    HW211362   2.903   0.277   6.045
 3707SOL     OW11363   3.077   1.576   6.382
 3707SOL    HW111364   3.092   1.641   6.314
 3707SOL    HW211365   3.154   1.583   6.439
 3708SOL     OW11366   2.335   1.153   6.312
 3708SOL    HW111367   2.269   1.134   6.378
 3708SOL    HW211368   2.289   1.141   6.229
 3709SOL     OW11369   3.123   1.791   6.199
 3709SOL    HW111370   3.172   1.854   6.147
 3709SOL    HW211371   3.053   1.842   6.239
 3710SOL     OW11372   2.882   0.533   5.619
 3710SOL    HW111373   2.840   0.617   5.599
 3710SOL    HW211374   2.948   0.555   5.685
 3711SOL     OW11375   2.441   0.219   6.783
 3711SOL    HW111376   2.451   0.131   6.747
 3711SOL    HW211377   2.347   0.227   6.800
 3712SOL     OW11378   2.726   0.466   6.223
 3712SOL    HW111379   2.682   0.521   6.159
 3712SOL    HW211380   2.751   0.388   6.175
 3713SOL     OW11381   2.826   0.025   6.348
 3713SOL    HW111382   2.772   0.024   6.269
 3713SOL    HW211383   2.882   6.947   6.340
 3714SOL     OW11384   3.297   1.159   6.442
 3714SOL    HW111385   3.232   1.090   6.439
 3714SOL    HW211386   3.324   1.170   6.350
 3715SOL     OW11387   3.326   0.611   6.546
 3715SOL    HW111388   3.271   0.533   6.557
 3715SOL    HW211389   3.388   0.606   6.619
 3716SOL     OW11390   3.701   0.809   5.972
 3716SOL    HW111391   3.760   0.762   6.030
 3716SOL    HW211392   3.679   0.746   5.903
 3717SOL     OW11393   2.351   1.422   5.737
 3717SOL    HW111394   2.275   1.394   5.788
 3717SOL    HW211395   2.348   1.370   5.657
 3718SOL     OW11396   3.541   1.264   6.228
 3718SOL    HW111397   3.635   1.262   6.244
 3718SOL    HW211398   3.514   1.354   6.250
 3719SOL     OW11399   3.257   0.574   5.659
 3719SOL    HW111400   3.194   0.552   5.728
 3719SOL    HW211401   3.343   0.561   5.700
 3720SOL     OW11402   2.371   0.255   5.882
 3720SOL    HW111403   2.437   0.218   5.823
 3720SOL    HW211404   2.353   0.341   5.847
 3721SOL     OW11405   3.619   1.171   0.154
 3721SOL    HW111406   3.689   1.157   0.218
 3721SOL    HW211407   3.609   1.267   0.151
 3722SOL     OW11408   2.979   1.234   6.694
 3722SOL    HW111409   2.896   1.192   6.715
 3722SOL    HW211410   2.968   1.264   6.603
 3723SOL     OW11411   3.477   1.081   6.648
 3723SOL    HW111412   3.476   1.150   6.715
 3723SOL    HW211413   3.405   1.103   6.589
 3724SOL     OW11414   2.573   1.063   5.957
 3724SOL    HW111415   2.558   1.042   6.049
 3724SOL    HW211416   2.648   1.009   5.932
 3725SOL     OW11417   2.289   0.814   6.850
 3725SOL    HW111418   2.336   0.838   6.929
 3725SOL    HW211419   2.255   0.727   6.867
 3726SOL     OW11420   3.121   0.383   6.876
 3726SOL    HW111421   3.149   0.461   6.924
 3726SOL    HW211422   3.032   0.404   6.846
 3727SOL     OW11423   1.930   1.576   6.941
 3727SOL    HW111424   1.903   1.648   6.883
 3727SOL    HW211425   2.025   1.571   6.930
 3728SOL     OW11426   2.195   1.121   6.075
 3728SOL    HW111427   2.198   1.195   6.015
 3728SOL    HW211428   2.194   1.044   6.019
 3729SOL     OW11429   2.412   0.533   6.443
 3729SOL    HW111430   2.424   0.591   6.368
 3729SOL    HW211431   2.481   0.557   6.504
 3730SOL     OW11432   3.109   1.351   5.977
 3730SOL    HW111433   3.164   1.422   6.009
 3730SOL    HW211434   3.021   1.372   6.010
 3731SOL     OW11435   3.148   1.446   6.747
 3731SOL    HW111436   3.179   1.431   6.837
 3731SOL    HW211437   3.085   1.375   6.732
 3732SOL     OW11438   3.432   0.622   6.071
 3732SOL    HW111439   3.384   0.674   6.136
 3732SOL    HW211440   3.483   0.687   6.022
 3733SOL     OW11441   2.199   1.532   6.883
 3733SOL    HW111442   2.188   1.478   6.805
 3733SOL    HW211443   2.294   1.543   6.892
 3734SOL     OW11444   2.448   0.871   6.625
 3734SOL    HW111445   2.477   0.963   6.625
 3734SOL    HW211446   2.392   0.863   6.702
 3735SOL     OW11447   3.198   0.859   6.597
 3735SOL    HW111448   3.113   0.835   6.560
 3735SOL    HW211449   3.251   0.780   6.590
 3736SOL     OW11450   3.061   0.527   5.847
 3736SOL    HW111451   3.069   0.449   5.902
 3736SOL    HW211452   3.019   0.592   5.903
 3737SOL     OW11453   2.172   0.208   6.834
 3737SOL    HW111454   2.125   0.204   6.917
 3737SOL    HW211455   2.169   0.119   6.800
 3738SOL     OW11456   1.893   1.313   6.869
 3738SOL    HW111457   1.936   1.259   6.935
 3738SOL    HW211458   1.902   1.403   6.901
 3739SOL     OW11459   2.583   0.625   6.637
 3739SOL    HW111460   2.662   0.615   6.583
 3739SOL    HW211461   2.555   0.715   6.623
 3740SOL     OW11462   2.182   0.056   6.213
 3740SOL    HW111463   2.158   0.144   6.244
 3740SOL    HW211464   2.114   6.999   6.249
 3741SOL     OW11465   3.484   0.397   5.922
 3741SOL    HW111466   3.513   0.326   5.978
 3741SOL    HW211467   3.455   0.465   5.982
 3742SOL     OW11468   2.889   0.760   6.551
 3742SOL    HW111469   2.880   0.774   6.645
 3742SOL    HW211470   2.865   0.668   6.539
 3743SOL     OW11471   3.404   0.228   5.718
 3743SOL    HW111472   3.310   0.228   5.732
 3743SOL    HW211473   3.438   0.289   5.785
 3744SOL     OW11474   3.146   0.824   5.612
 3744SOL    HW111475   3.189   0.738   5.617
 3744SOL    HW211476   3.180   0.862   5.531
 3745SOL     OW11477   2.936   1.340   6.442
 3745SOL    HW111478   2.941   1.269   6.378
 3745SOL    HW211479   2.990   1.409   6.405
 3746SOL     OW11480   2.174   0.812   6.531
 3746SOL    HW111481   2.267   0.833   6.524
 3746SOL    HW211482   2.172   0.722   6.563
 3747SOL     OW11483   2.205   0.543   6.610
 3747SOL    HW111484   2.160   0.460   6.592
 3747SOL    HW211485   2.279   0.544   6.550
 3748SOL     OW11486   3.002   0.219   0.073
 3748SOL    HW111487   3.024   0.289   0.135
 3748SOL    HW211488   3.028   0.253   6.987
 3749SOL     OW11489   1.871   1.315   5.779
 3749SOL    HW111490   1.783   1.332   5.744
 3749SOL    HW211491   1.865   1.226   5.814
 3750SOL     OW11492   1.950   1.785   6.524
 3750SOL    HW111493   1.921   1.707   6.477
 3750SOL    HW211494   2.040   1.798   6.495
 3751SOL     OW11495   2.352   1.576   6.487
 3751SOL    HW111496   2.421   1.637   6.513
 3751SOL    HW211497   2.395   1.513   6.431
 3752SOL     OW11498   2.840   0.784   6.823
 3752SOL    HW111499   2.914   0.758   6.878
 3752SOL    HW211500   2.763   0.755   6.872
 3753SOL     OW11501   1.915   0.556   6.715
 3753SOL    HW111502   1.959   0.508   6.644
 3753SOL    HW211503   1.985   0.580   6.775
 3754SOL     OW11504   2.679   0.575   5.955
 3754SOL    HW111505   2.686   0.500   5.895
 3754SOL    HW211506   2.604   0.624   5.922
 3755SOL     OW11507   3.511   0.612   6.748
 3755SOL    HW111508   3.500   0.560   6.827
 3755SOL    HW211509   3.602   0.600   6.723
 3756SOL     OW11510   2.546   0.467   6.856
 3756SOL    HW111511   2.513   0.382   6.827
 3756SOL    HW211512   2.551   0.519   6.776
 3757SOL     OW11513   2.807   1.662   6.996
 3757SOL    HW111514   2.774   1.653   6.907
 3757SOL    HW211515   2.787   1.752   0.020
 3758SOL     OW11516   2.320   0.491   5.759
 3758SOL    HW111517   2.380   0.561   5.785
 3758SOL    HW211518   2.234   0.534   5.752
 3759SOL     OW11519   2.018   1.146   0.053
 3759SOL    HW111520   2.071   1.107   0.122
 3759SOL    HW211521   2.029   1.088   6.978
 3760SOL     OW11522   3.147   1.014   6.819
 3760SOL    HW111523   3.178   0.963   6.744
 3760SOL    HW211524   3.115   1.096   6.780
 3761SOL     OW11525   3.180   0.855   5.887
 3761SOL    HW111526   3.106   0.826   5.940
 3761SOL    HW211527   3.152   0.843   5.797
 3762SOL     OW11528   3.609   1.763   6.717
 3762SOL    HW111529   3.685   1.779   6.661
 3762SOL    HW211530   3.597   1.669   6.715
 3763SOL     OW11531   3.108   1.723   6.697
 3763SOL    HW111532   3.189   1.749   6.654
 3763SOL    HW211533   3.119   1.630   6.715
 3764SOL     OW11534   1.946   1.269   6.601
 3764SOL    HW111535   1.927   1.281   6.694
 3764SOL    HW211536   1.878   1.210   6.570
 3765SOL     OW11537   3.570   0.176   6.056
 3765SOL    HW111538   3.649   0.156   6.007
 3765SOL    HW211539   3.572   0.114   6.129
 3766SOL     OW11540   3.255   1.568   6.078
 3766SOL    HW111541   3.313   1.602   6.011
 3766SOL    HW211542   3.204   1.644   6.108
 3767SOL     OW11543   3.139   0.929   6.256
 3767SOL    HW111544   3.213   0.869   6.267
 3767SOL    HW211545   3.174   1.000   6.202
 3768SOL     OW11546   2.530   1.627   5.742
 3768SOL    HW111547   2.543   1.642   5.649
 3768SOL    HW211548   2.474   1.549   5.747
 3769SOL     OW11549   3.730   0.163   6.534
 3769SOL    HW111550   3.717   0.069   6.544
 3769SOL    HW211551   3.643   0.199   6.520
 3770SOL     OW11552   2.121   0.310   6.301
 3770SOL    HW111553   2.036   0.346   6.276
 3770SOL    HW211554   2.121   0.316   6.397
 3771SOL     OW11555   3.070   1.600   5.619
 3771SOL    HW111556   3.059   1.508   5.646
 3771SOL    HW211557   3.004   1.614   5.552
 3772SOL     OW11558   2.633   1.026   6.957
 3772SOL    HW111559   2.687   0.991   6.886
 3772SOL    HW211560   2.683   1.100   6.992
 3773SOL     OW11561   2.779   0.910   5.878
 3773SOL    HW111562   2.838   0.943   5.810
 3773SOL    HW211563   2.829   0.843   5.923
 3774SOL     OW11564   3.350   1.629   5.632
 3774SOL    HW111565   3.256   1.619   5.616
 3774SOL    HW211566   3.388   1.635   5.544
 3775SOL     OW11567   3.474   1.281   6.832
 3775SOL    HW111568   3.562   1.279   6.871
 3775SOL    HW211569   3.415   1.265   6.906
 3776SOL     OW11570   2.925   1.111   6.298
 3776SOL    HW111571   2.852   1.060   6.333
 3776SOL    HW211572   2.989   1.045   6.272
 3777SOL     OW11573   2.889   0.243   6.520
 3777SOL    HW111574   2.863   0.188   6.446
 3777SOL    HW211575   2.886   0.184   6.596
 3778SOL     OW11576   2.468   1.488   6.066
 3778SOL    HW111577   2.518   1.438   6.001
 3778SOL    HW211578   2.392   1.521   6.017
 3779SOL     OW11579   3.564   0.437   6.951
 3779SOL    HW111580   3.625   0.439   0.024
 3779SOL    HW211581   3.573   0.349   6.915
 3780SOL     OW11582   2.125   1.342   5.879
 3780SOL    HW111583   2.033   1.337   5.854
 3780SOL    HW211584   2.125   1.383   5.966
 3781SOL     OW11585   1.937   0.332   5.621
 3781SOL    HW111586   1.845   0.316   5.599
 3781SOL    HW211587   1.962   0.409   5.570
 3782SOL     OW11588   1.931   0.175   5.894
 3782SOL    HW111589   1.940   0.240   5.825
 3782SOL    HW211590   1.977   0.097   5.861
 3783SOL     OW11591   3.040   1.333   5.705
 3783SOL    HW111592   2.950   1.302   5.706
 3783SOL    HW211593   3.066   1.335   5.797
 3784SOL     OW11594   3.352   1.783   6.577
 3784SOL    HW111595   3.367   1.851   6.511
 3784SOL    HW211596   3.438   1.771   6.619
 3785SOL     OW11597   3.379   1.258   0.334
 3785SOL    HW111598   3.285   1.271   0.319
 3785SOL    HW211599   3.401   1.180   0.283
 3786SOL     OW11600   2.252   1.732   0.101
 3786SOL    HW111601   2.165   1.771   0.112
 3786SOL    HW211602   2.244   1.643   0.136
 3787SOL     OW11603   3.565   0.879   6.830
 3787SOL    HW111604   3.534   0.795   6.797
 3787SOL    HW211605   3.532   0.943   6.767
 3788SOL     OW11606   3.082   0.322   6.038
 3788SOL    HW111607   3.151   0.255   6.033
 3788SOL    HW211608   3.104   0.372   6.117
 3789SOL     OW11609   2.448   0.734   6.258
 3789SOL    HW111610   2.488   0.820   6.243
 3789SOL    HW211611   2.384   0.725   6.188
 3790SOL     OW11612   3.596   0.904   0.102
 3790SOL    HW111613   3.616   0.996   0.115
 3790SOL    HW211614   3.592   0.892   0.007
 3791SOL     OW11615   2.725   1.364   5.631
 3791SOL    HW111616   2.688   1.391   5.715
 3791SOL    HW211617   2.741   1.446   5.585
 3792SOL     OW11618   2.527   1.781   6.524
 3792SOL    HW111619   2.509   1.873   6.505
 3792SOL    HW211620   2.622   1.775   6.522
 3793SOL     OW11621   2.732   0.972   6.440
 3793SOL    HW111622   2.780   0.898   6.479
 3793SOL    HW211623   2.694   1.018   6.515
 3794SOL     OW11624   2.938   0.988   5.674
 3794SOL    HW111625   2.917   1.040   5.597
 3794SOL    HW211626   3.011   0.933   5.647
 3795SOL     OW11627   3.710   1.553   6.427
 3795SOL    HW111628   3.628   1.544   6.377
 3795SOL    HW211629   3.694   1.506   6.509
 3796SOL     OW11630   1.953   1.228   6.252
 3796SOL    HW111631   1.960   1.181   6.335
 3796SOL    HW211632   2.021   1.189   6.196
 3797SOL     OW11633   3.708   0.196   6.842
 3797SOL    HW111634   3.642   0.128   6.833
 3797SOL    HW211635   3.726   0.224   6.752
 3798SOL     OW11636   2.289   0.428   6.108
 3798SOL    HW111637   2.318   0.356   6.052
 3798SOL    HW211638   2.239   0.385   6.178
 3799SOL     OW11639   3.547   1.499   6.667
 3799SOL    HW111640   3.469   1.481   6.615
 3799SOL    HW211641   3.549   1.428   6.732
 3800SOL     OW11642   2.172   0.551   6.882
 3800SOL    HW111643   2.236   0.495   6.925
 3800SOL    HW211644   2.192   0.543   6.789
 3801SOL     OW11645   2.695   1.579   6.257
 3801SOL    HW111646   2.675   1.649   6.195
 3801SOL    HW211647   2.619   1.522   6.256
 3802SOL     OW11648   3.267   0.213   6.723
 3802SOL    HW111649   3.352   0.189   6.760
 3802SOL    HW211650   3.225   0.264   6.791
 3803SOL     OW11651   2.858   0.050   6.711
 3803SOL    HW111652   2.775   0.004   6.706
 3803SOL    HW211653   2.897   0.022   6.794
 3804SOL     OW11654   2.637   1.334   5.908
 3804SOL    HW111655   2.611   1.242   5.916
 3804SOL    HW211656   2.718   1.341   5.958
 3805SOL     OW11657   2.473   1.559   6.864
 3805SOL    HW111658   2.474   1.651   6.891
 3805SOL    HW211659   2.559   1.545   6.823
 3806SOL     OW11660   3.185   0.012   5.782
 3806SOL    HW111661   3.223   6.943   5.728
 3806SOL    HW211662   3.111   6.971   5.826
 3807SOL     OW11663   3.129   0.453   6.272
 3807SOL    HW111664   3.085   0.538   6.273
 3807SOL    HW211665   3.147   0.434   6.364
 3808SOL     OW11666   3.481   0.263   6.501
 3808SOL    HW111667   3.391   0.238   6.523
 3808SOL    HW211668   3.471   0.323   6.427
 3809SOL     OW11669   1.904   1.064   5.895
 3809SOL    HW111670   1.998   1.056   5.876
 3809SOL    HW211671   1.876   0.975   5.916
 3810SOL     OW11672   2.752   1.663   5.921
 3810SOL    HW111673   2.676   1.647   5.865
 3810SOL    HW211674   2.725   1.734   5.979
 3811SOL     OW11675   2.080   2.507   0.139
 3811SOL    HW111676   1.989   2.487   0.160
 3811SOL    HW211677   2.088   2.485   0.046
 3812SOL     OW11678   2.086   2.147   0.993
 3812SOL    HW111679   2.115   2.111   1.078
 3812SOL    HW211680   1.997   2.114   0.982
 3813SOL     OW11681   1.860   2.251   0.642
 3813SOL    HW111682   1.779   2.279   0.685
 3813SOL    HW211683   1.835   2.172   0.593
 3814SOL     OW11684   2.431   3.162   1.187
 3814SOL    HW111685   2.346   3.167   1.143
 3814SOL    HW211686   2.448   3.251   1.217
 3815SOL     OW11687   3.436   3.380   0.710
 3815SOL    HW111688   3.394   3.351   0.790
 3815SOL    HW211689   3.367   3.377   0.644
 3816SOL     OW11690   2.997   2.554   0.698
 3816SOL    HW111691   3.045   2.633   0.674
 3816SOL    HW211692   2.951   2.577   0.779
 3817SOL     OW11693   3.656   2.437   0.193
 3817SOL    HW111694   3.599   2.503   0.154
 3817SOL    HW211695   3.604   2.400   0.265
 3818SOL     OW11696   2.605   2.998   1.051
 3818SOL    HW111697   2.540   3.037   1.109
 3818SOL    HW211698   2.646   3.072   1.006
 3819SOL     OW11699   2.739   2.621   1.824
 3819SOL    HW111700   2.725   2.692   1.887
 3819SOL    HW211701   2.760   2.666   1.742
 3820SOL     OW11702   2.546   2.854   0.644
 3820SOL    HW111703   2.613   2.849   0.712
 3820SOL    HW211704   2.479   2.912   0.682
 3821SOL     OW11705   2.576   3.012   1.822
 3821SOL    HW111706   2.625   3.088   1.852
 3821SOL    HW211707   2.497   3.048   1.781
 3822SOL     OW11708   2.193   3.277   1.067
 3822SOL    HW111709   2.119   3.237   1.022
 3822SOL    HW211710   2.237   3.329   0.999
 3823SOL     OW11711   3.320   3.364   1.363
 3823SOL    HW111712   3.374   3.442   1.372
 3823SOL    HW211713   3.251   3.375   1.429
 3824SOL     OW11714   2.313   2.253   1.477
 3824SOL    HW111715   2.389   2.195   1.486
 3824SOL    HW211716   2.238   2.198   1.496
 3825SOL     OW11717   3.464   2.307   0.746
 3825SOL    HW111718   3.388   2.317   0.690
 3825SOL    HW211719   3.475   2.392   0.789
 3826SOL     OW11720   2.082   3.585   0.471
 3826SOL    HW111721   2.105   3.659   0.526
 3826SOL    HW211722   2.165   3.557   0.432
 3827SOL     OW11723   3.000   3.204   1.696
 3827SOL    HW111724   3.041   3.196   1.781
 3827SOL    HW211725   2.948   3.124   1.686
 3828SOL     OW11726   2.082   3.308   0.537
 3828SOL    HW111727   2.063   3.401   0.550
 3828SOL    HW211728   2.029   3.263   0.603
 3829SOL     OW11729   2.127   2.954   0.888
 3829SOL    HW111730   2.125   2.865   0.925
 3829SOL    HW211731   2.069   3.005   0.945
 3830SOL     OW11732   2.460   3.656   1.425
 3830SOL    HW111733   2.380   3.638   1.474
 3830SOL    HW211734   2.486   3.744   1.454
 3831SOL     OW11735   2.446   2.830   0.145
 3831SOL    HW111736   2.506   2.850   0.074
 3831SOL    HW211737   2.483   2.875   0.221
 3832SOL     OW11738   3.457   1.990   1.464
 3832SOL    HW111739   3.485   2.068   1.416
 3832SOL    HW211740   3.435   2.021   1.551
 3833SOL     OW11741   1.982   2.512   0.558
 3833SOL    HW111742   1.952   2.425   0.584
 3833SOL    HW211743   1.974   2.565   0.638
 3834SOL     OW11744   3.699   3.623   0.344
 3834SOL    HW111745   3.770   3.597   0.403
 3834SOL    HW211746   3.706   3.718   0.338
 3835SOL     OW11747   3.554   2.778   0.648
 3835SOL    HW111748   3.618   2.721   0.608
 3835SOL    HW211749   3.522   2.833   0.577
 3836SOL     OW11750   3.515   2.954   0.437
 3836SOL    HW111751   3.580   2.982   0.373
 3836SOL    HW211752   3.516   3.023   0.504
 3837SOL     OW11753   1.987   2.607   1.584
 3837SOL    HW111754   2.077   2.639   1.586
 3837SOL    HW211755   1.933   2.686   1.583
 3838SOL     OW11756   2.479   3.251   0.742
 3838SOL    HW111757   2.435   3.166   0.750
 3838SOL    HW211758   2.469   3.275   0.650
 3839SOL     OW11759   3.145   3.097   1.421
 3839SOL    HW111760   3.173   3.028   1.361
 3839SOL    HW211761   3.206   3.091   1.494
 3840SOL     OW11762   2.683   1.869   0.520
 3840SOL    HW111763   2.725   1.951   0.494
 3840SOL    HW211764   2.589   1.890   0.524
 3841SOL     OW11765   2.048   2.822   1.282
 3841SOL    HW111766   2.135   2.784   1.268
 3841SOL    HW211767   1.992   2.779   1.218
 3842SOL     OW11768   3.349   2.890   0.200
 3842SOL    HW111769   3.294   2.822   0.238
 3842SOL    HW211770   3.435   2.875   0.238
 3843SOL     OW11771   3.044   3.676   1.627
 3843SOL    HW111772   3.049   3.738   1.554
 3843SOL    HW211773   3.062   3.591   1.588
 3844SOL     OW11774   2.207   2.109   1.838
 3844SOL    HW111775   2.246   2.194   1.856
 3844SOL    HW211776   2.113   2.122   1.853
 3845SOL     OW11777   3.328   3.279   0.941
 3845SOL    HW111778   3.263   3.294   1.010
 3845SOL    HW211779   3.315   3.188   0.915
 3846SOL     OW11780   3.505   3.625   0.584
 3846SOL    HW111781   3.485   3.593   0.496
 3846SOL    HW211782   3.494   3.549   0.641
 3847SOL     OW11783   2.463   2.575   0.261
 3847SOL    HW111784   2.470   2.664   0.226
 3847SOL    HW211785   2.403   2.583   0.335
 3848SOL     OW11786   3.142   2.231   0.938
 3848SOL    HW111787   3.053   2.197   0.945
 3848SOL    HW211788   3.194   2.176   0.995
 3849SOL     OW11789   3.433   3.542   0.319
 3849SOL    HW111790   3.525   3.567   0.314
 3849SOL    HW211791   3.406   3.529   0.228
 3850SOL     OW11792   2.652   2.479   1.445
 3850SOL    HW111793   2.627   2.453   1.533
 3850SOL    HW211794   2.620   2.409   1.388
 3851SOL     OW11795   3.253   2.337   1.677
 3851SOL    HW111796   3.258   2.381   1.762
 3851SOL    HW211797   3.310   2.261   1.686
 3852SOL     OW11798   2.811   2.746   1.587
 3852SOL    HW111799   2.865   2.678   1.548
 3852SOL    HW211800   2.762   2.783   1.514
 3853SOL     OW11801   2.856   2.269   1.232
 3853SOL    HW111802   2.766   2.284   1.259
 3853SOL    HW211803   2.850   2.233   1.143
 3854SOL     OW11804   2.866   2.570   0.443
 3854SOL    HW111805   2.916   2.554   0.523
 3854SOL    HW211806   2.800   2.501   0.442
 3855SOL     OW11807   1.952   2.680   0.776
 3855SOL    HW111808   2.032   2.675   0.828
 3855SOL    HW211809   1.905   2.755   0.810
 3856SOL     OW11810   1.985   3.736   1.584
 3856SOL    HW111811   1.990   3.713   1.677
 3856SOL    HW211812   1.902   3.699   1.555
 3857SOL     OW11813   2.752   2.209   0.202
 3857SOL    HW111814   2.805   2.271   0.152
 3857SOL    HW211815   2.781   2.123   0.173
 3858SOL     OW11816   3.563   2.433   1.832
 3858SOL    HW111817   3.530   2.507   1.781
 3858SOL    HW211818   3.592   2.369   1.766
 3859SOL     OW11819   3.237   2.998   0.555
 3859SOL    HW111820   3.292   2.953   0.491
 3859SOL    HW211821   3.182   3.057   0.503
 3860SOL     OW11822   2.413   2.037   0.899
 3860SOL    HW111823   2.415   2.068   0.989
 3860SOL    HW211824   2.415   2.116   0.846
 3861SOL     OW11825   2.858   3.301   0.473
 3861SOL    HW111826   2.828   3.378   0.425
 3861SOL    HW211827   2.832   3.317   0.564
 3862SOL     OW11828   2.216   3.677   0.871
 3862SOL    HW111829   2.260   3.592   0.876
 3862SOL    HW211830   2.285   3.741   0.891
 3863SOL     OW11831   3.668   2.912   0.870
 3863SOL    HW111832   3.619   2.887   0.791
 3863SOL    HW211833   3.601   2.918   0.938
 3864SOL     OW11834   3.086   3.403   1.514
 3864SOL    HW111835   3.076   3.331   1.576
 3864SOL    HW211836   3.022   3.385   1.445
 3865SOL     OW11837   2.172   2.821   0.227
 3865SOL    HW111838   2.262   2.832   0.195
 3865SOL    HW211839   2.152   2.729   0.209
 3866SOL     OW11840   3.365   2.583   0.724
 3866SOL    HW111841   3.348   2.570   0.817
 3866SOL    HW211842   3.424   2.658   0.721
 3867SOL     OW11843   2.333   3.132   1.739
 3867SOL    HW111844   2.307   3.137   1.647
 3867SOL    HW211845   2.250   3.128   1.787
 3868SOL     OW11846   2.983   3.633   0.241
 3868SOL    HW111847   2.916   3.587   0.291
 3868SOL    HW211848   3.015   3.568   0.178
 3869SOL     OW11849   2.065   2.130   1.503
 3869SOL    HW111850   1.985   2.182   1.509
 3869SOL    HW211851   2.040   2.045   1.540
 3870SOL     OW11852   3.514   3.296   0.112
 3870SOL    HW111853   3.456   3.361   0.074
 3870SOL    HW211854   3.459   3.248   0.174
 3871SOL     OW11855   2.346   3.557   0.384
 3871SOL    HW111856   2.377   3.640   0.423
 3871SOL    HW211857   2.400   3.546   0.306
 3872SOL     OW11858   2.119   3.651   1.227
 3872SOL    HW111859   2.168   3.580   1.267
 3872SOL    HW211860   2.110   3.626   1.135
 3873SOL     OW11861   2.804   3.562   0.896
 3873SOL    HW111862   2.885   3.514   0.914
 3873SOL    HW211863   2.761   3.511   0.827
 3874SOL     OW11864   2.262   2.555   0.463
 3874SOL    HW111865   2.277   2.462   0.482
 3874SOL    HW211866   2.169   2.569   0.482
 3875SOL     OW11867   3.387   2.087   1.722
 3875SOL    HW111868   3.397   2.106   1.816
 3875SOL    HW211869   3.317   2.021   1.719
 3876SOL     OW11870   2.625   2.140   1.756
 3876SOL    HW111871   2.706   2.090   1.753
 3876SOL    HW211872   2.579   2.106   1.833
 3877SOL     OW11873   2.736   3.386   1.197
 3877SOL    HW111874   2.720   3.348   1.110
 3877SOL    HW211875   2.807   3.333   1.233
 3878SOL     OW11876   3.199   2.452   1.432
 3878SOL    HW111877   3.230   2.422   1.517
 3878SOL    HW211878   3.237   2.539   1.421
 3879SOL     OW11879   2.680   3.250   0.951
 3879SOL    HW111880   2.765   3.238   0.908
 3879SOL    HW211881   2.618   3.256   0.878
 3880SOL     OW11882   2.790   2.368   0.903
 3880SOL    HW111883   2.764   2.361   0.811
 3880SOL    HW211884   2.822   2.281   0.925
 3881SOL     OW11885   2.416   1.934   0.502
 3881SOL    HW111886   2.336   1.934   0.554
 3881SOL    HW211887   2.404   2.006   0.440
 3882SOL     OW11888   3.282   3.084   0.008
 3882SOL    HW111889   3.307   3.006   0.057
 3882SOL    HW211890   3.203   3.115   0.051
 3883SOL     OW11891   2.808   2.107   0.459
 3883SOL    HW111892   2.779   2.152   0.380
 3883SOL    HW211893   2.902   2.125   0.464
 3884SOL     OW11894   2.942   2.547   1.458
 3884SOL    HW111895   2.877   2.476   1.458
 3884SOL    HW211896   3.026   2.503   1.450
 3885SOL     OW11897   3.074   3.436   0.801
 3885SOL    HW111898   3.091   3.498   0.730
 3885SOL    HW211899   3.150   3.445   0.859
 3886SOL     OW11900   2.338   3.016   0.729
 3886SOL    HW111901   2.267   2.994   0.790
 3886SOL    HW211902   2.298   3.008   0.642
 3887SOL     OW11903   3.117   3.648   0.614
 3887SOL    HW111904   3.169   3.715   0.568
 3887SOL    HW211905   3.046   3.697   0.655
 3888SOL     OW11906   2.896   2.388   0.061
 3888SOL    HW111907   2.833   2.460   0.061
 3888SOL    HW211908   2.964   2.417   0.122
 3889SOL     OW11909   1.948   2.415   1.393
 3889SOL    HW111910   2.040   2.415   1.366
 3889SOL    HW211911   1.942   2.484   1.459
 3890SOL     OW11912   2.419   2.090   1.172
 3890SOL    HW111913   2.461   2.018   1.219
 3890SOL    HW211914   2.327   2.086   1.199
 3891SOL     OW11915   2.722   2.309   0.645
 3891SOL    HW111916   2.676   2.361   0.579
 3891SOL    HW211917   2.753   2.232   0.597
 3892SOL     OW11918   2.884   1.913   0.744
 3892SOL    HW111919   2.821   1.912   0.672
 3892SOL    HW211920   2.857   1.841   0.801
 3893SOL     OW11921   3.302   3.020   0.852
 3893SOL    HW111922   3.236   2.951   0.849
 3893SOL    HW211923   3.329   3.030   0.761
 3894SOL     OW11924   3.320   2.476   0.979
 3894SOL    HW111925   3.268   2.396   0.976
 3894SOL    HW211926   3.380   2.463   1.052
 3895SOL     OW11927   3.716   2.684   0.396
 3895SOL    HW111928   3.759   2.609   0.437
 3895SOL    HW211929   3.688   2.652   0.310
 3896SOL     OW11930   2.328   3.297   0.153
 3896SOL    HW111931   2.270   3.253   0.215
 3896SOL    HW211932   2.316   3.250   0.071
 3897SOL     OW11933   3.537   3.128   0.645
 3897SOL    HW111934   3.632   3.126   0.657
 3897SOL    HW211935   3.513   3.219   0.661
 3898SOL     OW11936   3.251   2.408   0.056
 3898SOL    HW111937   3.202   2.417   0.137
 3898SOL    HW211938   3.312   2.336   0.072
 3899SOL     OW11939   2.366   2.121   0.309
 3899SOL    HW111940   2.402   2.071   0.236
 3899SOL    HW211941   2.343   2.206   0.271
 3900SOL     OW11942   3.609   3.105   1.560
 3900SOL    HW111943   3.697   3.067   1.549
 3900SOL    HW211944   3.625   3.194   1.590
 3901SOL     OW11945   2.915   3.221   1.337
 3901SOL    HW111946   2.839   3.186   1.384
 3901SOL    HW211947   2.990   3.175   1.375
 3902SOL     OW11948   3.472   3.491   1.661
 3902SOL    HW111949   3.462   3.525   1.572
 3902SOL    HW211950   3.553   3.440   1.658
 3903SOL     OW11951   3.002   3.081   1.104
 3903SOL    HW111952   2.935   3.114   1.164
 3903SOL    HW211953   2.973   3.110   1.017
 3904SOL     OW11954   3.484   2.955   1.072
 3904SOL    HW111955   3.474   3.019   1.143
 3904SOL    HW211956   3.410   2.972   1.014
 3905SOL     OW11957   2.781   1.953   1.390
 3905SOL    HW111958   2.802   1.935   1.299
 3905SOL    HW211959   2.860   1.993   1.427
 3906SOL     OW11960   2.846   2.976   1.724
 3906SOL    HW111961   2.755   2.993   1.748
 3906SOL    HW211962   2.843   2.898   1.669
 3907SOL     OW11963   2.574   2.923   0.373
 3907SOL    HW111964   2.560   2.901   0.465
 3907SOL    HW211965   2.650   2.871   0.347
 3908SOL     OW11966   2.284   2.683   1.254
 3908SOL    HW111967   2.352   2.692   1.320
 3908SOL    HW211968   2.250   2.594   1.266
 3909SOL     OW11969   3.124   2.233   1.285
 3909SOL    HW111970   3.157   2.313   1.327
 3909SOL    HW211971   3.034   2.254   1.261
 3910SOL     OW11972   1.938   3.435   1.358
 3910SOL    HW111973   1.909   3.506   1.300
 3910SOL    HW211974   2.033   3.434   1.349
 3911SOL     OW11975   2.221   2.983   0.485
 3911SOL    HW111976   2.198   3.053   0.423
 3911SOL    HW211977   2.220   2.903   0.431
 3912SOL     OW11978   2.407   2.391   0.860
 3912SOL    HW111979   2.420   2.451   0.785
 3912SOL    HW211980   2.475   2.416   0.922
 3913SOL     OW11981   3.108   3.205   0.404
 3913SOL    HW111982   3.158   3.279   0.440
 3913SOL    HW211983   3.018   3.222   0.433
 3914SOL     OW11984   3.154   3.323   1.146
 3914SOL    HW111985   3.207   3.326   1.226
 3914SOL    HW211986   3.102   3.244   1.156
 3915SOL     OW11987   3.443   2.488   0.472
 3915SOL    HW111988   3.410   2.513   0.559
 3915SOL    HW211989   3.399   2.547   0.412
 3916SOL     OW11990   2.208   3.393   1.308
 3916SOL    HW111991   2.197   3.347   1.225
 3916SOL    HW211992   2.302   3.404   1.317
 3917SOL     OW11993   2.281   2.608   1.605
 3917SOL    HW111994   2.344   2.651   1.547
 3917SOL    HW211995   2.318   2.522   1.621
 3918SOL     OW11996   3.474   2.645   1.688
 3918SOL    HW111997   3.387   2.686   1.681
 3918SOL    HW211998   3.525   2.685   1.618
 3919SOL     OW11999   2.859   1.997   1.756
 3919SOL    HW112000   2.916   2.070   1.734
 3919SOL    HW212001   2.907   1.919   1.729
 3920SOL     OW12002   2.358   1.896   1.753
 3920SOL    HW112003   2.310   1.845   1.688
 3920SOL    HW212004   2.302   1.972   1.769
 3921SOL     OW12005   2.447   2.736   1.033
 3921SOL    HW112006   2.483   2.825   1.035
 3921SOL    HW212007   2.390   2.732   1.110
 3922SOL     OW12008   3.209   2.724   1.021
 3922SOL    HW112009   3.140   2.722   0.955
 3922SOL    HW212010   3.250   2.638   1.016
 3923SOL     OW12011   3.080   2.409   0.271
 3923SOL    HW112012   3.066   2.354   0.348
 3923SOL    HW212013   3.106   2.494   0.306
 3924SOL     OW12014   2.157   2.058   1.247
 3924SOL    HW112015   2.121   2.089   1.329
 3924SOL    HW212016   2.140   1.963   1.247
 3925SOL     OW12017   1.907   3.174   1.273
 3925SOL    HW112018   1.939   3.118   1.344
 3925SOL    HW212019   1.912   3.262   1.308
 3926SOL     OW12020   2.580   2.490   1.052
 3926SOL    HW112021   2.658   2.478   0.997
 3926SOL    HW212022   2.552   2.580   1.034
 3927SOL     OW12023   3.604   2.820   1.861
 3927SOL    HW112024   3.561   2.754   1.808
 3927SOL    HW212025   3.542   2.839   1.931
 3928SOL     OW12026   2.170   1.927   0.627
 3928SOL    HW112027   2.147   2.017   0.649
 3928SOL    HW212028   2.179   1.883   0.712
 3929SOL     OW12029   3.484   2.236   0.376
 3929SOL    HW112030   3.510   2.178   0.447
 3929SOL    HW212031   3.467   2.320   0.419
 3930SOL     OW12032   2.882   2.622   0.954
 3930SOL    HW112033   2.879   2.638   1.048
 3930SOL    HW212034   2.860   2.529   0.944
 3931SOL     OW12035   2.842   3.427   1.723
 3931SOL    HW112036   2.825   3.471   1.640
 3931SOL    HW212037   2.887   3.346   1.699
 3932SOL     OW12038   3.712   3.362   1.604
 3932SOL    HW112039   3.734   3.389   1.515
 3932SOL    HW212040   3.793   3.375   1.654
 3933SOL     OW12041   2.213   2.778   1.811
 3933SOL    HW112042   2.294   2.797   1.859
 3933SOL    HW212043   2.239   2.716   1.743
 3934SOL     OW12044   3.368   2.148   0.146
 3934SOL    HW112045   3.322   2.067   0.169
 3934SOL    HW212046   3.412   2.175   0.227
 3935SOL     OW12047   3.109   2.660   6.978
 3935SOL    HW112048   3.174   2.600   0.016
 3935SOL    HW212049   3.162   2.729   6.938
 3936SOL     OW12050   2.930   3.200   0.859
 3936SOL    HW112051   2.935   3.128   0.796
 3936SOL    HW212052   2.987   3.268   0.823
 3937SOL     OW12053   2.171   2.672   0.946
 3937SOL    HW112054   2.264   2.692   0.939
 3937SOL    HW212055   2.168   2.582   0.977
 3938SOL     OW12056   2.187   2.394   1.014
 3938SOL    HW112057   2.152   2.306   1.001
 3938SOL    HW212058   2.264   2.397   0.957
 3939SOL     OW12059   2.996   2.232   1.688
 3939SOL    HW112060   2.948   2.288   1.750
 3939SOL    HW212061   3.082   2.274   1.681
 3940SOL     OW12062   3.022   2.057   1.474
 3940SOL    HW112063   3.010   2.121   1.545
 3940SOL    HW212064   3.065   2.107   1.404
 3941SOL     OW12065   1.952   3.643   0.943
 3941SOL    HW112066   1.921   3.566   0.895
 3941SOL    HW212067   2.041   3.657   0.910
 3942SOL     OW12068   2.352   3.437   0.904
 3942SOL    HW112069   2.422   3.498   0.928
 3942SOL    HW212070   2.395   3.373   0.847
 3943SOL     OW12071   2.832   2.648   1.223
 3943SOL    HW112072   2.893   2.631   1.294
 3943SOL    HW212073   2.750   2.606   1.252
 3944SOL     OW12074   1.899   2.412   1.117
 3944SOL    HW112075   1.980   2.408   1.066
 3944SOL    HW212076   1.929   2.412   1.209
 3945SOL     OW12077   2.054   2.385   1.732
 3945SOL    HW112078   2.108   2.341   1.667
 3945SOL    HW212079   2.019   2.462   1.687
 3946SOL     OW12080   3.244   2.794   1.656
 3946SOL    HW112081   3.265   2.887   1.651
 3946SOL    HW212082   3.239   2.766   1.565
 3947SOL     OW12083   2.653   2.402   0.387
 3947SOL    HW112084   2.675   2.342   0.315
 3947SOL    HW212085   2.593   2.466   0.348
 3948SOL     OW12086   3.503   2.461   1.183
 3948SOL    HW112087   3.495   2.401   1.257
 3948SOL    HW212088   3.590   2.443   1.148
 3949SOL     OW12089   2.098   3.410   1.722
 3949SOL    HW112090   2.077   3.473   1.791
 3949SOL    HW212091   2.106   3.326   1.768
 3950SOL     OW12092   2.578   2.305   1.250
 3950SOL    HW112093   2.519   2.234   1.225
 3950SOL    HW212094   2.569   2.370   1.180
 3951SOL     OW12095   2.777   3.542   1.475
 3951SOL    HW112096   2.758   3.499   1.392
 3951SOL    HW212097   2.774   3.635   1.456
 3952SOL     OW12098   2.313   2.358   0.184
 3952SOL    HW112099   2.374   2.427   0.209
 3952SOL    HW212100   2.227   2.401   0.185
 3953SOL     OW12101   2.001   3.006   1.475
 3953SOL    HW112102   2.004   2.960   1.559
 3953SOL    HW212103   2.018   2.938   1.410
 3954SOL     OW12104   3.178   2.904   1.220
 3954SOL    HW112105   3.198   2.840   1.152
 3954SOL    HW212106   3.116   2.964   1.179
 3955SOL     OW12107   3.646   3.595   1.162
 3955SOL    HW112108   3.704   3.621   1.091
 3955SOL    HW212109   3.615   3.508   1.137
 3956SOL     OW12110   3.102   3.595   1.107
 3956SOL    HW112111   3.185   3.620   1.065
 3956SOL    HW212112   3.112   3.502   1.126
 3957SOL     OW12113   1.949   3.129   1.008
 3957SOL    HW112114   1.929   3.142   1.101
 3957SOL    HW212115   1.879   3.071   0.977
 3958SOL     OW12116   2.543   3.535   1.741
 3958SOL    HW112117   2.483   3.609   1.730
 3958SOL    HW212118   2.613   3.551   1.678
 3959SOL     OW12119   2.801   1.937   0.106
 3959SOL    HW112120   2.871   1.987   0.064
 3959SOL    HW212121   2.845   1.884   0.172
 3960SOL     OW12122   3.595   2.028   0.538
 3960SOL    HW112123   3.656   2.012   0.466
 3960SOL    HW212124   3.565   1.940   0.563
 3961SOL     OW12125   3.251   3.424   0.497
 3961SOL    HW112126   3.310   3.456   0.429
 3961SOL    HW212127   3.201   3.501   0.524
 3962SOL     OW12128   2.002   3.658   1.842
 3962SOL    HW112129   1.953   3.590   1.888
 3962SOL    HW212130   2.049   3.705   1.912
 3963SOL     OW12131   3.154   2.784   0.696
 3963SOL    HW112132   3.212   2.714   0.667
 3963SOL    HW212133   3.175   2.857   0.639
 3964SOL     OW12134   2.664   3.139   1.422
 3964SOL    HW112135   2.636   3.181   1.504
 3964SOL    HW212136   2.593   3.158   1.360
 3965SOL     OW12137   2.535   3.473   0.193
 3965SOL    HW112138   2.542   3.512   0.106
 3965SOL    HW212139   2.478   3.397   0.181
 3966SOL     OW12140   3.480   3.590   1.393
 3966SOL    HW112141   3.535   3.593   1.315
 3966SOL    HW212142   3.465   3.681   1.417
 3967SOL     OW12143   3.705   2.031   0.966
 3967SOL    HW112144   3.733   1.943   0.941
 3967SOL    HW212145   3.619   2.041   0.925
 3968SOL     OW12146   2.117   2.177   0.716
 3968SOL    HW112147   2.031   2.213   0.694
 3968SOL    HW212148   2.118   2.173   0.812
 3969SOL     OW12149   3.078   3.460   0.044
 3969SOL    HW112150   3.072   3.367   0.068
 3969SOL    HW212151   2.995   3.479   7.000
 3970SOL     OW12152   2.685   2.869   1.377
 3970SOL    HW112153   2.727   2.860   1.291
 3970SOL    HW212154   2.681   2.963   1.392
 3971SOL     OW12155   2.780   2.778   0.288
 3971SOL    HW112156   2.847   2.805   0.225
 3971SOL    HW212157   2.823   2.710   0.340
 3972SOL     OW12158   3.345   3.517   0.044
 3972SOL    HW112159   3.252   3.494   0.042
 3972SOL    HW212160   3.368   3.533   6.952
 3973SOL     OW12161   2.228   3.169   1.494
 3973SOL    HW112162   2.217   3.244   1.435
 3973SOL    HW212163   2.151   3.114   1.478
 3974SOL     OW12164   3.467   3.146   1.277
 3974SOL    HW112165   3.527   3.129   1.349
 3974SOL    HW212166   3.407   3.213   1.311
 3975SOL     OW12167   2.922   2.974   0.711
 3975SOL    HW112168   2.849   2.923   0.747
 3975SOL    HW212169   2.983   2.908   0.680
 3976SOL     OW12170   2.889   2.104   0.966
 3976SOL    HW112171   2.887   2.058   0.882
 3976SOL    HW212172   2.882   2.035   1.032
 3977SOL     OW12173   2.481   3.337   0.488
 3977SOL    HW112174   2.517   3.291   0.412
 3977SOL    HW212175   2.419   3.400   0.451
 3978SOL     OW12176   3.593   2.251   1.383
 3978SOL    HW112177   3.665   2.315   1.381
 3978SOL    HW212178   3.621   2.181   1.324
 3979SOL     OW12179   2.133   3.184   0.307
 3979SOL    HW112180   2.054   3.203   0.256
 3979SOL    HW212181   2.120   3.229   0.390
 3980SOL     OW12182   1.978   2.901   1.730
 3980SOL    HW112183   1.901   2.871   1.778
 3980SOL    HW212184   2.051   2.854   1.769
 3981SOL     OW12185   2.539   2.055   1.500
 3981SOL    HW112186   2.623   2.034   1.459
 3981SOL    HW212187   2.562   2.089   1.586
 3982SOL     OW12188   1.970   2.172   0.014
 3982SOL    HW112189   1.911   2.123   6.955
 3982SOL    HW212190   1.988   2.254   6.968
 3983SOL     OW12191   3.286   2.718   1.396
 3983SOL    HW112192   3.235   2.778   1.342
 3983SOL    HW212193   3.374   2.721   1.358
 3984SOL     OW12194   1.913   2.032   0.333
 3984SOL    HW112195   1.894   2.110   0.279
 3984SOL    HW212196   2.005   2.013   0.315
 3985SOL     OW12197   3.051   3.202   0.125
 3985SOL    HW112198   2.960   3.174   0.111
 3985SOL    HW212199   3.065   3.190   0.219
 3986SOL     OW12200   2.483   2.693   1.436
 3986SOL    HW112201   2.541   2.768   1.422
 3986SOL    HW212202   2.543   2.618   1.442
 3987SOL     OW12203   3.345   3.652   0.985
 3987SOL    HW112204   3.371   3.719   0.922
 3987SOL    HW212205   3.427   3.614   1.015
 3988SOL     OW12206   2.580   2.419   1.698
 3988SOL    HW112207   2.625   2.478   1.759
 3988SOL    HW212208   2.598   2.331   1.732
 3989SOL     OW12209   3.336   3.054   1.627
 3989SOL    HW112210   3.325   3.071   1.721
 3989SOL    HW212211   3.428   3.075   1.610
 3990SOL     OW12212   2.230   3.604   1.567
 3990SOL    HW112213   2.148   3.650   1.551
 3990SOL    HW212214   2.204   3.521   1.607
 3991SOL     OW12215   3.524   2.741   1.255
 3991SOL    HW112216   3.521   2.655   1.212
 3991SOL    HW212217   3.514   2.804   1.183
 3992SOL     OW12218   3.075   2.178   0.460
 3992SOL    HW112219   3.157   2.148   0.423
 3992SOL    HW212220   3.100   2.227   0.539
 3993SOL     OW12221   2.442   2.594   0.675
 3993SOL    HW112222   2.486   2.679   0.662
 3993SOL    HW212223   2.382   2.588   0.601
 3994SOL     OW12224   3.617   2.225   1.657
 3994SOL    HW112225   3.606   2.241   1.563
 3994SOL    HW212226   3.542   2.169   1.680
 3995SOL     OW12227   3.615   2.794   1.509
 3995SOL    HW112228   3.601   2.887   1.522
 3995SOL    HW212229   3.594   2.778   1.417
 3996SOL     OW12230   2.763   3.249   0.046
 3996SOL    HW112231   2.706   3.224   0.119
 3996SOL    HW212232   2.766   3.345   0.051
 3997SOL     OW12233   2.526   3.644   0.937
 3997SOL    HW112234   2.509   3.737   0.918
 3997SOL    HW212235   2.621   3.636   0.932
 3998SOL     OW12236   2.729   2.835   0.853
 3998SOL    HW112237   2.779   2.761   0.887
 3998SOL    HW212238   2.691   2.876   0.931
 3999SOL     OW12239   2.944   2.867   0.071
 3999SOL    HW112240   2.984   2.907   6.994
 3999SOL    HW212241   3.001   2.793   0.091
 4000SOL     OW12242   3.708   3.417   0.839
 4000SOL    HW112243   3.628   3.403   0.789
 4000SOL    HW212244   3.710   3.344   0.901
 4001SOL     OW12245   2.085   3.158   1.850
 4001SOL    HW112246   2.031   3.088   1.812
 4001SOL    HW212247   2.048   3.171   1.937
 4002SOL     OW12248   1.948   3.094   0.666
 4002SOL    HW112249   1.981   3.046   0.742
 4002SOL    HW212250   1.988   3.049   0.591
 4003SOL     OW12251   2.548   3.271   1.633
 4003SOL    HW112252   2.469   3.229   1.666
 4003SOL    HW212253   2.546   3.359   1.669
 4004SOL     OW12254   3.673   2.040   1.236
 4004SOL    HW112255   3.677   1.945   1.247
 4004SOL    HW212256   3.684   2.055   1.142
 4005SOL     OW12257   2.285   2.296   0.524
 4005SOL    HW112258   2.318   2.224   0.471
 4005SOL    HW212259   2.238   2.253   0.596
 4006SOL     OW12260   3.552   3.350   1.093
 4006SOL    HW112261   3.477   3.329   1.038
 4006SOL    HW212262   3.556   3.278   1.157
 4007SOL     OW12263   2.199   2.424   1.293
 4007SOL    HW112264   2.253   2.365   1.347
 4007SOL    HW212265   2.215   2.395   1.204
 4008SOL     OW12266   2.692   3.441   0.678
 4008SOL    HW112267   2.671   3.503   0.608
 4008SOL    HW212268   2.620   3.379   0.679
 4009SOL     OW12269   3.290   2.092   1.118
 4009SOL    HW112270   3.308   2.007   1.159
 4009SOL    HW212271   3.240   2.140   1.184
 4010SOL     OW12272   2.870   1.877   1.133
 4010SOL    HW112273   2.817   1.812   1.087
 4010SOL    HW212274   2.958   1.838   1.136
 4011SOL     OW12275   2.646   3.184   0.306
 4011SOL    HW112276   2.615   3.095   0.323
 4011SOL    HW212277   2.721   3.195   0.364
 4012SOL     OW12278   2.481   3.419   1.288
 4012SOL    HW112279   2.481   3.502   1.336
 4012SOL    HW212280   2.570   3.413   1.252
 4013SOL     OW12281   3.219   1.918   0.198
 4013SOL    HW112282   3.236   1.873   0.115
 4013SOL    HW212283   3.135   1.883   0.227
 4014SOL     OW12284   3.155   2.319   0.677
 4014SOL    HW112285   3.109   2.403   0.677
 4014SOL    HW212286   3.152   2.290   0.768
 4015SOL     OW12287   3.445   2.058   0.885
 4015SOL    HW112288   3.391   2.085   0.959
 4015SOL    HW212289   3.448   2.135   0.827
 4016SOL     OW12290   1.940   2.914   0.366
 4016SOL    HW112291   2.021   2.892   0.321
 4016SOL    HW212292   1.893   2.831   0.374
 4017SOL     OW12293   2.755   3.525   0.354
 4017SOL    HW112294   2.680   3.501   0.299
 4017SOL    HW212295   2.724   3.599   0.406
 4018SOL     OW12296   2.083   2.485   1.994
 4018SOL    HW112297   1.993   2.480   2.028
 4018SOL    HW212298   2.074   2.463   1.901
 4019SOL     OW12299   2.086   2.146   2.855
 4019SOL    HW112300   2.114   2.111   2.940
 4019SOL    HW212301   1.997   2.114   2.843
 4020SOL     OW12302   1.859   2.247   2.501
 4020SOL    HW112303   1.779   2.275   2.545
 4020SOL    HW212304   1.833   2.169   2.450
 4021SOL     OW12305   2.431   3.159   3.048
 4021SOL    HW112306   2.345   3.163   3.007
 4021SOL    HW212307   2.448   3.247   3.079
 4022SOL     OW12308   3.435   3.377   2.569
 4022SOL    HW112309   3.389   3.351   2.649
 4022SOL    HW212310   3.367   3.381   2.502
 4023SOL     OW12311   2.997   2.560   2.556
 4023SOL    HW112312   3.044   2.643   2.543
 4023SOL    HW212313   2.949   2.573   2.638
 4024SOL     OW12314   3.639   2.460   2.088
 4024SOL    HW112315   3.613   2.457   1.996
 4024SOL    HW212316   3.600   2.381   2.126
 4025SOL     OW12317   2.608   2.999   2.912
 4025SOL    HW112318   2.541   3.037   2.970
 4025SOL    HW212319   2.647   3.074   2.868
 4026SOL     OW12320   2.740   2.620   3.690
 4026SOL    HW112321   2.720   2.687   3.755
 4026SOL    HW212322   2.760   2.668   3.610
 4027SOL     OW12323   2.548   2.856   2.505
 4027SOL    HW112324   2.614   2.851   2.575
 4027SOL    HW212325   2.479   2.912   2.542
 4028SOL     OW12326   2.575   3.011   3.682
 4028SOL    HW112327   2.621   3.088   3.713
 4028SOL    HW212328   2.495   3.045   3.643
 4029SOL     OW12329   2.193   3.275   2.931
 4029SOL    HW112330   2.118   3.235   2.888
 4029SOL    HW212331   2.238   3.324   2.862
 4030SOL     OW12332   3.311   3.350   3.222
 4030SOL    HW112333   3.365   3.429   3.231
 4030SOL    HW212334   3.246   3.358   3.292
 4031SOL     OW12335   2.315   2.251   3.335
 4031SOL    HW112336   2.389   2.192   3.346
 4031SOL    HW212337   2.238   2.198   3.357
 4032SOL     OW12338   3.463   2.306   2.604
 4032SOL    HW112339   3.391   2.316   2.542
 4032SOL    HW212340   3.467   2.389   2.650
 4033SOL     OW12341   2.081   3.578   2.329
 4033SOL    HW112342   2.104   3.653   2.385
 4033SOL    HW212343   2.156   3.570   2.269
 4034SOL     OW12344   3.000   3.202   3.564
 4034SOL    HW112345   3.025   3.203   3.657
 4034SOL    HW212346   2.949   3.122   3.554
 4035SOL     OW12347   2.097   3.308   2.401
 4035SOL    HW112348   2.075   3.402   2.400
 4035SOL    HW212349   2.037   3.270   2.466
 4036SOL     OW12350   2.134   2.953   2.755
 4036SOL    HW112351   2.126   2.865   2.791
 4036SOL    HW212352   2.074   3.006   2.807
 4037SOL     OW12353   2.469   3.641   3.287
 4037SOL    HW112354   2.388   3.633   3.338
 4037SOL    HW212355   2.498   3.731   3.301
 4038SOL     OW12356   2.439   2.847   2.003
 4038SOL    HW112357   2.488   2.892   1.934
 4038SOL    HW212358   2.478   2.879   2.085
 4039SOL     OW12359   1.982   2.518   2.424
 4039SOL    HW112360   1.950   2.430   2.445
 4039SOL    HW212361   1.972   2.567   2.505
 4040SOL     OW12362   3.705   3.615   2.193
 4040SOL    HW112363   3.777   3.590   2.252
 4040SOL    HW212364   3.722   3.707   2.172
 4041SOL     OW12365   1.904   3.451   1.981
 4041SOL    HW112366   1.884   3.359   2.001
 4041SOL    HW212367   1.876   3.499   2.059
 4042SOL     OW12368   3.553   2.783   2.509
 4042SOL    HW112369   3.632   2.737   2.482
 4042SOL    HW212370   3.528   2.836   2.432
 4043SOL     OW12371   3.512   2.965   2.293
 4043SOL    HW112372   3.598   2.964   2.251
 4043SOL    HW212373   3.520   3.029   2.363
 4044SOL     OW12374   1.986   2.607   3.446
 4044SOL    HW112375   2.076   2.641   3.448
 4044SOL    HW212376   1.931   2.686   3.447
 4045SOL     OW12377   2.482   3.250   2.595
 4045SOL    HW112378   2.437   3.166   2.603
 4045SOL    HW212379   2.465   3.279   2.505
 4046SOL     OW12380   3.133   3.095   3.280
 4046SOL    HW112381   3.167   3.024   3.226
 4046SOL    HW212382   3.195   3.103   3.352
 4047SOL     OW12383   2.684   1.868   2.378
 4047SOL    HW112384   2.724   1.951   2.352
 4047SOL    HW212385   2.590   1.886   2.381
 4048SOL     OW12386   2.049   2.821   3.145
 4048SOL    HW112387   2.135   2.783   3.129
 4048SOL    HW212388   1.991   2.778   3.083
 4049SOL     OW12389   3.393   2.863   2.063
 4049SOL    HW112390   3.324   2.805   2.095
 4049SOL    HW212391   3.436   2.896   2.142
 4050SOL     OW12392   3.047   3.676   3.458
 4050SOL    HW112393   3.135   3.693   3.422
 4050SOL    HW212394   3.035   3.581   3.448
 4051SOL     OW12395   2.208   2.111   3.697
 4051SOL    HW112396   2.246   2.195   3.721
 4051SOL    HW212397   2.114   2.122   3.713
 4052SOL     OW12398   3.322   3.282   2.802
 4052SOL    HW112399   3.257   3.297   2.870
 4052SOL    HW212400   3.311   3.190   2.777
 4053SOL     OW12401   3.511   3.621   2.439
 4053SOL    HW112402   3.496   3.588   2.350
 4053SOL    HW212403   3.497   3.544   2.495
 4054SOL     OW12404   2.456   2.578   2.134
 4054SOL    HW112405   2.458   2.661   2.088
 4054SOL    HW212406   2.391   2.589   2.203
 4055SOL     OW12407   3.140   2.235   2.796
 4055SOL    HW112408   3.051   2.200   2.803
 4055SOL    HW212409   3.192   2.179   2.854
 4056SOL     OW12410   3.440   3.535   2.174
 4056SOL    HW112411   3.532   3.559   2.165
 4056SOL    HW212412   3.411   3.519   2.084
 4057SOL     OW12413   2.659   2.477   3.306
 4057SOL    HW112414   2.632   2.453   3.395
 4057SOL    HW212415   2.623   2.409   3.250
 4058SOL     OW12416   3.220   2.359   3.524
 4058SOL    HW112417   3.206   2.408   3.605
 4058SOL    HW212418   3.267   2.280   3.551
 4059SOL     OW12419   2.810   2.748   3.451
 4059SOL    HW112420   2.865   2.680   3.413
 4059SOL    HW212421   2.763   2.786   3.377
 4060SOL     OW12422   2.857   2.265   3.093
 4060SOL    HW112423   2.768   2.283   3.122
 4060SOL    HW212424   2.847   2.231   3.004
 4061SOL     OW12425   2.917   2.559   2.285
 4061SOL    HW112426   2.935   2.553   2.379
 4061SOL    HW212427   2.833   2.515   2.274
 4062SOL     OW12428   1.950   2.683   2.640
 4062SOL    HW112429   2.030   2.677   2.692
 4062SOL    HW212430   1.904   2.760   2.675
 4063SOL     OW12431   2.002   3.698   3.436
 4063SOL    HW112432   1.996   3.684   3.531
 4063SOL    HW212433   1.920   3.742   3.413
 4064SOL     OW12434   2.762   2.213   2.059
 4064SOL    HW112435   2.802   2.277   2.000
 4064SOL    HW212436   2.766   2.130   2.010
 4065SOL     OW12437   3.244   3.004   2.401
 4065SOL    HW112438   3.323   2.993   2.348
 4065SOL    HW212439   3.190   3.066   2.352
 4066SOL     OW12440   2.414   2.036   2.762
 4066SOL    HW112441   2.416   2.068   2.852
 4066SOL    HW212442   2.411   2.114   2.707
 4067SOL     OW12443   2.861   3.308   2.330
 4067SOL    HW112444   2.831   3.383   2.278
 4067SOL    HW212445   2.835   3.329   2.420
 4068SOL     OW12446   2.217   3.663   2.730
 4068SOL    HW112447   2.242   3.571   2.728
 4068SOL    HW212448   2.294   3.709   2.762
 4069SOL     OW12449   3.663   2.918   2.735
 4069SOL    HW112450   3.612   2.896   2.657
 4069SOL    HW212451   3.599   2.921   2.806
 4070SOL     OW12452   3.081   3.396   3.377
 4070SOL    HW112453   3.071   3.325   3.441
 4070SOL    HW212454   3.016   3.376   3.310
 4071SOL     OW12455   2.174   2.822   2.118
 4071SOL    HW112456   2.257   2.842   2.073
 4071SOL    HW212457   2.145   2.740   2.079
 4072SOL     OW12458   3.345   2.614   2.578
 4072SOL    HW112459   3.340   2.577   2.666
 4072SOL    HW212460   3.423   2.671   2.581
 4073SOL     OW12461   2.332   3.129   3.599
 4073SOL    HW112462   2.306   3.134   3.507
 4073SOL    HW212463   2.250   3.126   3.648
 4074SOL     OW12464   2.988   3.638   2.092
 4074SOL    HW112465   2.910   3.600   2.133
 4074SOL    HW212466   3.012   3.575   2.024
 4075SOL     OW12467   2.064   2.132   3.367
 4075SOL    HW112468   1.984   2.183   3.372
 4075SOL    HW212469   2.041   2.047   3.404
 4076SOL     OW12470   3.491   3.245   1.957
 4076SOL    HW112471   3.451   3.330   1.940
 4076SOL    HW212472   3.424   3.181   1.934
 4077SOL     OW12473   2.325   3.600   2.180
 4077SOL    HW112474   2.372   3.654   2.243
 4077SOL    HW212475   2.393   3.563   2.124
 4078SOL     OW12476   3.261   1.967   2.305
 4078SOL    HW112477   3.251   1.943   2.213
 4078SOL    HW212478   3.356   1.974   2.318
 4079SOL     OW12479   2.106   3.641   3.094
 4079SOL    HW112480   2.157   3.570   3.133
 4079SOL    HW212481   2.100   3.618   3.002
 4080SOL     OW12482   2.797   3.561   2.761
 4080SOL    HW112483   2.877   3.512   2.780
 4080SOL    HW212484   2.755   3.512   2.690
 4081SOL     OW12485   2.260   2.555   2.336
 4081SOL    HW112486   2.276   2.462   2.349
 4081SOL    HW212487   2.166   2.566   2.351
 4082SOL     OW12488   2.510   1.978   1.963
 4082SOL    HW112489   2.568   1.903   1.981
 4082SOL    HW212490   2.454   1.948   1.891
 4083SOL     OW12491   2.624   2.139   3.618
 4083SOL    HW112492   2.704   2.086   3.616
 4083SOL    HW212493   2.577   2.108   3.696
 4084SOL     OW12494   2.738   3.389   3.054
 4084SOL    HW112495   2.720   3.349   2.968
 4084SOL    HW212496   2.806   3.334   3.092
 4085SOL     OW12497   3.199   2.456   3.269
 4085SOL    HW112498   3.217   2.431   3.360
 4085SOL    HW212499   3.234   2.545   3.262
 4086SOL     OW12500   2.681   3.250   2.809
 4086SOL    HW112501   2.766   3.239   2.767
 4086SOL    HW212502   2.619   3.256   2.736
 4087SOL     OW12503   2.793   2.371   2.760
 4087SOL    HW112504   2.767   2.363   2.668
 4087SOL    HW212505   2.820   2.283   2.784
 4088SOL     OW12506   2.417   1.925   2.357
 4088SOL    HW112507   2.337   1.925   2.409
 4088SOL    HW212508   2.408   2.002   2.300
 4089SOL     OW12509   3.291   3.065   1.900
 4089SOL    HW112510   3.320   2.989   1.952
 4089SOL    HW212511   3.205   3.087   1.936
 4090SOL     OW12512   2.150   1.910   2.048
 4090SOL    HW112513   2.205   1.975   2.003
 4090SOL    HW212514   2.211   1.850   2.089
 4091SOL     OW12515   2.806   2.112   2.316
 4091SOL    HW112516   2.781   2.149   2.232
 4091SOL    HW212517   2.900   2.128   2.322
 4092SOL     OW12518   2.939   2.549   3.320
 4092SOL    HW112519   2.869   2.484   3.319
 4092SOL    HW212520   3.018   2.498   3.300
 4093SOL     OW12521   3.074   3.436   2.657
 4093SOL    HW112522   3.090   3.501   2.588
 4093SOL    HW212523   3.148   3.445   2.716
 4094SOL     OW12524   2.336   3.016   2.586
 4094SOL    HW112525   2.271   2.995   2.652
 4094SOL    HW212526   2.291   3.004   2.503
 4095SOL     OW12527   3.126   3.654   2.479
 4095SOL    HW112528   3.174   3.715   2.423
 4095SOL    HW212529   3.052   3.705   2.513
 4096SOL     OW12530   2.886   2.395   1.889
 4096SOL    HW112531   2.842   2.477   1.868
 4096SOL    HW212532   2.952   2.419   1.954
 4097SOL     OW12533   1.948   2.416   3.255
 4097SOL    HW112534   2.040   2.416   3.228
 4097SOL    HW212535   1.941   2.485   3.320
 4098SOL     OW12536   2.419   2.091   3.035
 4098SOL    HW112537   2.459   2.018   3.082
 4098SOL    HW212538   2.327   2.088   3.061
 4099SOL     OW12539   2.729   2.319   2.499
 4099SOL    HW112540   2.685   2.376   2.436
 4099SOL    HW212541   2.751   2.241   2.449
 4100SOL     OW12542   2.881   1.917   2.607
 4100SOL    HW112543   2.821   1.914   2.533
 4100SOL    HW212544   2.856   1.841   2.661
 4101SOL     OW12545   3.303   3.022   2.719
 4101SOL    HW112546   3.231   2.959   2.718
 4101SOL    HW212547   3.330   3.028   2.627
 4102SOL     OW12548   3.323   2.479   2.821
 4102SOL    HW112549   3.268   2.401   2.826
 4102SOL    HW212550   3.384   2.470   2.894
 4103SOL     OW12551   3.701   2.671   2.249
 4103SOL    HW112552   3.760   2.623   2.306
 4103SOL    HW212553   3.677   2.609   2.180
 4104SOL     OW12554   2.351   3.284   2.013
 4104SOL    HW112555   2.275   3.255   2.064
 4104SOL    HW212556   2.348   3.232   1.933
 4105SOL     OW12557   3.541   3.126   2.505
 4105SOL    HW112558   3.636   3.124   2.519
 4105SOL    HW212559   3.516   3.216   2.524
 4106SOL     OW12560   3.255   2.435   1.932
 4106SOL    HW112561   3.195   2.413   2.003
 4106SOL    HW212562   3.341   2.406   1.963
 4107SOL     OW12563   2.388   2.123   2.171
 4107SOL    HW112564   2.438   2.079   2.103
 4107SOL    HW212565   2.361   2.206   2.132
 4108SOL     OW12566   2.909   3.220   3.193
 4108SOL    HW112567   2.833   3.186   3.239
 4108SOL    HW212568   2.984   3.173   3.231
 4109SOL     OW12569   3.430   3.482   3.514
 4109SOL    HW112570   3.417   3.522   3.428
 4109SOL    HW212571   3.521   3.452   3.513
 4110SOL     OW12572   3.002   3.076   2.965
 4110SOL    HW112573   2.936   3.108   3.026
 4110SOL    HW212574   2.973   3.107   2.879
 4111SOL     OW12575   3.487   2.957   2.943
 4111SOL    HW112576   3.481   3.023   3.012
 4111SOL    HW212577   3.410   2.974   2.888
 4112SOL     OW12578   2.779   1.952   3.251
 4112SOL    HW112579   2.800   1.935   3.159
 4112SOL    HW212580   2.859   1.991   3.287
 4113SOL     OW12581   2.845   2.975   3.593
 4113SOL    HW112582   2.754   2.994   3.615
 4113SOL    HW212583   2.841   2.898   3.537
 4114SOL     OW12584   2.573   2.925   2.233
 4114SOL    HW112585   2.558   2.903   2.325
 4114SOL    HW212586   2.648   2.872   2.208
 4115SOL     OW12587   2.285   2.682   3.114
 4115SOL    HW112588   2.352   2.691   3.182
 4115SOL    HW212589   2.250   2.594   3.128
 4116SOL     OW12590   3.123   2.229   3.142
 4116SOL    HW112591   3.157   2.312   3.177
 4116SOL    HW212592   3.032   2.249   3.118
 4117SOL     OW12593   1.933   3.430   3.218
 4117SOL    HW112594   1.906   3.511   3.175
 4117SOL    HW212595   2.028   3.434   3.219
 4118SOL     OW12596   2.196   2.984   2.350
 4118SOL    HW112597   2.197   3.057   2.289
 4118SOL    HW212598   2.195   2.906   2.295
 4119SOL     OW12599   2.408   2.391   2.722
 4119SOL    HW112600   2.421   2.449   2.647
 4119SOL    HW212601   2.475   2.417   2.785
 4120SOL     OW12602   3.109   3.212   2.255
 4120SOL    HW112603   3.165   3.283   2.286
 4120SOL    HW212604   3.021   3.234   2.287
 4121SOL     OW12605   3.149   3.323   3.006
 4121SOL    HW112606   3.202   3.325   3.086
 4121SOL    HW212607   3.094   3.245   3.016
 4122SOL     OW12608   3.441   2.478   2.347
 4122SOL    HW112609   3.390   2.527   2.413
 4122SOL    HW212610   3.481   2.546   2.294
 4123SOL     OW12611   2.209   3.392   3.173
 4123SOL    HW112612   2.195   3.345   3.091
 4123SOL    HW212613   2.304   3.401   3.179
 4124SOL     OW12614   2.281   2.609   3.467
 4124SOL    HW112615   2.345   2.650   3.409
 4124SOL    HW212616   2.316   2.522   3.484
 4125SOL     OW12617   2.854   1.990   3.616
 4125SOL    HW112618   2.911   2.065   3.594
 4125SOL    HW212619   2.908   1.913   3.598
 4126SOL     OW12620   2.358   1.896   3.614
 4126SOL    HW112621   2.309   1.845   3.549
 4126SOL    HW212622   2.303   1.972   3.631
 4127SOL     OW12623   2.450   2.735   2.897
 4127SOL    HW112624   2.480   2.826   2.897
 4127SOL    HW212625   2.390   2.729   2.971
 4128SOL     OW12626   3.203   2.722   2.882
 4128SOL    HW112627   3.116   2.708   2.844
 4128SOL    HW212628   3.249   2.640   2.867
 4129SOL     OW12629   3.062   2.388   2.124
 4129SOL    HW112630   3.069   2.310   2.178
 4129SOL    HW212631   3.020   2.453   2.180
 4130SOL     OW12632   2.157   2.059   3.109
 4130SOL    HW112633   2.120   2.090   3.191
 4130SOL    HW212634   2.140   1.964   3.109
 4131SOL     OW12635   1.909   3.171   3.134
 4131SOL    HW112636   1.941   3.117   3.207
 4131SOL    HW212637   1.912   3.261   3.167
 4132SOL     OW12638   2.581   2.490   2.914
 4132SOL    HW112639   2.658   2.482   2.857
 4132SOL    HW212640   2.550   2.580   2.898
 4133SOL     OW12641   2.173   1.923   2.486
 4133SOL    HW112642   2.148   2.013   2.506
 4133SOL    HW212643   2.180   1.880   2.572
 4134SOL     OW12644   3.485   2.240   2.221
 4134SOL    HW112645   3.515   2.176   2.284
 4134SOL    HW212646   3.461   2.317   2.273
 4135SOL     OW12647   2.892   2.620   2.818
 4135SOL    HW112648   2.881   2.636   2.912
 4135SOL    HW212649   2.864   2.529   2.806
 4136SOL     OW12650   2.845   3.431   3.582
 4136SOL    HW112651   2.823   3.468   3.496
 4136SOL    HW212652   2.883   3.346   3.562
 4137SOL     OW12653   3.685   3.413   3.463
 4137SOL    HW112654   3.724   3.439   3.379
 4137SOL    HW212655   3.748   3.439   3.529
 4138SOL     OW12656   2.214   2.779   3.674
 4138SOL    HW112657   2.294   2.797   3.722
 4138SOL    HW212658   2.240   2.716   3.606
 4139SOL     OW12659   3.386   2.132   1.987
 4139SOL    HW112660   3.323   2.067   2.017
 4139SOL    HW212661   3.422   2.170   2.068
 4140SOL     OW12662   3.149   2.687   1.889
 4140SOL    HW112663   3.191   2.601   1.893
 4140SOL    HW212664   3.181   2.725   1.808
 4141SOL     OW12665   2.933   3.201   2.722
 4141SOL    HW112666   2.938   3.130   2.658
 4141SOL    HW212667   2.986   3.271   2.684
 4142SOL     OW12668   2.170   2.671   2.808
 4142SOL    HW112669   2.263   2.690   2.799
 4142SOL    HW212670   2.167   2.580   2.839
 4143SOL     OW12671   2.187   2.393   2.876
 4143SOL    HW112672   2.151   2.305   2.863
 4143SOL    HW212673   2.264   2.396   2.819
 4144SOL     OW12674   2.978   2.229   3.539
 4144SOL    HW112675   2.929   2.278   3.606
 4144SOL    HW212676   3.054   2.284   3.520
 4145SOL     OW12677   3.024   2.052   3.331
 4145SOL    HW112678   3.003   2.113   3.402
 4145SOL    HW212679   3.061   2.108   3.262
 4146SOL     OW12680   1.873   3.177   2.054
 4146SOL    HW112681   1.785   3.194   2.020
 4146SOL    HW212682   1.867   3.088   2.090
 4147SOL     OW12683   1.951   3.643   2.804
 4147SOL    HW112684   1.919   3.566   2.757
 4147SOL    HW212685   2.040   3.655   2.772
 4148SOL     OW12686   2.351   3.427   2.762
 4148SOL    HW112687   2.417   3.494   2.783
 4148SOL    HW212688   2.398   3.366   2.704
 4149SOL     OW12689   2.833   2.647   3.083
 4149SOL    HW112690   2.892   2.634   3.157
 4149SOL    HW212691   2.750   2.609   3.112
 4150SOL     OW12692   1.899   2.412   2.980
 4150SOL    HW112693   1.980   2.407   2.929
 4150SOL    HW212694   1.927   2.413   3.071
 4151SOL     OW12695   2.052   2.386   3.595
 4151SOL    HW112696   2.103   2.340   3.529
 4151SOL    HW212697   2.017   2.463   3.549
 4152SOL     OW12698   2.679   2.432   2.231
 4152SOL    HW112699   2.685   2.359   2.170
 4152SOL    HW212700   2.605   2.484   2.199
 4153SOL     OW12701   3.508   2.470   3.022
 4153SOL    HW112702   3.478   2.406   3.087
 4153SOL    HW212703   3.601   2.451   3.011
 4154SOL     OW12704   2.110   3.410   3.588
 4154SOL    HW112705   2.080   3.477   3.649
 4154SOL    HW212706   2.109   3.328   3.638
 4155SOL     OW12707   2.580   2.305   3.112
 4155SOL    HW112708   2.519   2.235   3.090
 4155SOL    HW212709   2.570   2.370   3.042
 4156SOL     OW12710   2.782   3.536   3.335
 4156SOL    HW112711   2.754   3.498   3.251
 4156SOL    HW212712   2.788   3.630   3.318
 4157SOL     OW12713   2.319   2.353   2.042
 4157SOL    HW112714   2.380   2.423   2.067
 4157SOL    HW212715   2.234   2.396   2.034
 4158SOL     OW12716   2.002   3.006   3.338
 4158SOL    HW112717   2.004   2.960   3.422
 4158SOL    HW212718   2.019   2.938   3.273
 4159SOL     OW12719   3.186   2.904   3.085
 4159SOL    HW112720   3.204   2.838   3.018
 4159SOL    HW212721   3.121   2.962   3.044
 4160SOL     OW12722   3.180   2.717   2.165
 4160SOL    HW112723   3.104   2.687   2.215
 4160SOL    HW212724   3.154   2.705   2.073
 4161SOL     OW12725   3.609   3.591   2.988
 4161SOL    HW112726   3.678   3.623   2.930
 4161SOL    HW212727   3.601   3.498   2.965
 4162SOL     OW12728   3.107   3.595   2.968
 4162SOL    HW112729   3.194   3.618   2.935
 4162SOL    HW212730   3.113   3.501   2.987
 4163SOL     OW12731   1.954   3.123   2.872
 4163SOL    HW112732   1.935   3.140   2.965
 4163SOL    HW212733   1.879   3.073   2.841
 4164SOL     OW12734   2.535   3.527   3.593
 4164SOL    HW112735   2.461   3.558   3.541
 4164SOL    HW212736   2.613   3.550   3.542
 4165SOL     OW12737   3.590   2.022   2.368
 4165SOL    HW112738   3.657   2.006   2.302
 4165SOL    HW212739   3.572   1.935   2.405
 4166SOL     OW12740   3.257   3.430   2.355
 4166SOL    HW112741   3.314   3.463   2.286
 4166SOL    HW212742   3.205   3.505   2.382
 4167SOL     OW12743   2.005   3.651   3.704
 4167SOL    HW112744   1.952   3.585   3.750
 4167SOL    HW212745   2.047   3.701   3.774
 4168SOL     OW12746   3.140   2.791   2.532
 4168SOL    HW112747   3.214   2.731   2.540
 4168SOL    HW212748   3.174   2.863   2.478
 4169SOL     OW12749   2.661   3.138   3.281
 4169SOL    HW112750   2.634   3.179   3.363
 4169SOL    HW212751   2.588   3.155   3.220
 4170SOL     OW12752   2.530   3.489   2.018
 4170SOL    HW112753   2.544   3.504   1.924
 4170SOL    HW212754   2.474   3.411   2.022
 4171SOL     OW12755   3.465   3.573   3.236
 4171SOL    HW112756   3.501   3.572   3.147
 4171SOL    HW212757   3.528   3.626   3.286
 4172SOL     OW12758   3.705   2.035   2.835
 4172SOL    HW112759   3.733   1.948   2.806
 4172SOL    HW212760   3.619   2.048   2.795
 4173SOL     OW12761   2.117   2.173   2.575
 4173SOL    HW112762   2.031   2.208   2.552
 4173SOL    HW212763   2.116   2.170   2.671
 4174SOL     OW12764   3.070   3.462   1.896
 4174SOL    HW112765   3.059   3.370   1.921
 4174SOL    HW212766   3.005   3.476   1.828
 4175SOL     OW12767   2.686   2.869   3.238
 4175SOL    HW112768   2.723   2.864   3.149
 4175SOL    HW212769   2.679   2.963   3.255
 4176SOL     OW12770   2.781   2.774   2.156
 4176SOL    HW112771   2.839   2.806   2.087
 4176SOL    HW212772   2.831   2.705   2.199
 4177SOL     OW12773   3.350   3.492   1.909
 4177SOL    HW112774   3.257   3.481   1.892
 4177SOL    HW212775   3.389   3.498   1.821
 4178SOL     OW12776   2.231   3.166   3.353
 4178SOL    HW112777   2.216   3.244   3.300
 4178SOL    HW212778   2.152   3.113   3.340
 4179SOL     OW12779   3.490   3.160   3.140
 4179SOL    HW112780   3.543   3.146   3.218
 4179SOL    HW212781   3.418   3.216   3.169
 4180SOL     OW12782   2.926   2.974   2.576
 4180SOL    HW112783   2.852   2.924   2.611
 4180SOL    HW212784   2.989   2.907   2.548
 4181SOL     OW12785   2.889   2.104   2.827
 4181SOL    HW112786   2.885   2.058   2.743
 4181SOL    HW212787   2.882   2.035   2.893
 4182SOL     OW12788   2.469   3.352   2.342
 4182SOL    HW112789   2.519   3.301   2.279
 4182SOL    HW212790   2.392   3.381   2.294
 4183SOL     OW12791   3.527   2.240   3.185
 4183SOL    HW112792   3.577   2.291   3.249
 4183SOL    HW212793   3.589   2.221   3.115
 4184SOL     OW12794   2.128   3.202   2.159
 4184SOL    HW112795   2.036   3.199   2.131
 4184SOL    HW212796   2.125   3.245   2.245
 4185SOL     OW12797   1.977   2.897   3.589
 4185SOL    HW112798   1.901   2.869   3.639
 4185SOL    HW212799   2.051   2.853   3.631
 4186SOL     OW12800   2.538   2.055   3.362
 4186SOL    HW112801   2.623   2.034   3.322
 4186SOL    HW212802   2.560   2.089   3.449
 4187SOL     OW12803   1.943   2.189   1.891
 4187SOL    HW112804   1.858   2.170   1.852
 4187SOL    HW212805   1.974   2.267   1.846
 4188SOL     OW12806   3.303   2.709   3.261
 4188SOL    HW112807   3.250   2.778   3.221
 4188SOL    HW212808   3.391   2.724   3.227
 4189SOL     OW12809   1.921   2.015   2.161
 4189SOL    HW112810   1.908   2.094   2.107
 4189SOL    HW212811   2.007   1.982   2.134
 4190SOL     OW12812   3.040   3.194   1.980
 4190SOL    HW112813   2.949   3.165   1.980
 4190SOL    HW212814   3.065   3.195   2.073
 4191SOL     OW12815   2.485   2.690   3.298
 4191SOL    HW112816   2.542   2.766   3.284
 4191SOL    HW212817   2.545   2.616   3.304
 4192SOL     OW12818   3.355   3.673   2.874
 4192SOL    HW112819   3.379   3.706   2.788
 4192SOL    HW212820   3.437   3.642   2.912
 4193SOL     OW12821   2.585   2.419   3.558
 4193SOL    HW112822   2.627   2.477   3.621
 4193SOL    HW212823   2.597   2.331   3.594
 4194SOL     OW12824   3.315   3.123   3.487
 4194SOL    HW112825   3.268   3.134   3.570
 4194SOL    HW212826   3.402   3.159   3.504
 4195SOL     OW12827   2.259   3.605   3.453
 4195SOL    HW112828   2.178   3.651   3.430
 4195SOL    HW212829   2.230   3.523   3.491
 4196SOL     OW12830   3.538   2.737   3.118
 4196SOL    HW112831   3.524   2.657   3.068
 4196SOL    HW212832   3.527   2.807   3.053
 4197SOL     OW12833   3.077   2.180   2.319
 4197SOL    HW112834   3.139   2.107   2.314
 4197SOL    HW212835   3.107   2.231   2.395
 4198SOL     OW12836   2.448   2.595   2.537
 4198SOL    HW112837   2.488   2.680   2.522
 4198SOL    HW212838   2.384   2.585   2.467
 4199SOL     OW12839   2.728   3.227   1.908
 4199SOL    HW112840   2.688   3.257   1.989
 4199SOL    HW212841   2.743   3.307   1.857
 4200SOL     OW12842   2.507   3.654   2.807
 4200SOL    HW112843   2.492   3.713   2.880
 4200SOL    HW212844   2.602   3.645   2.803
 4201SOL     OW12845   2.732   2.835   2.716
 4201SOL    HW112846   2.781   2.761   2.753
 4201SOL    HW212847   2.692   2.877   2.792
 4202SOL     OW12848   2.939   2.851   1.952
 4202SOL    HW112849   2.917   2.902   1.874
 4202SOL    HW212850   3.013   2.796   1.924
 4203SOL     OW12851   3.707   3.411   2.703
 4203SOL    HW112852   3.630   3.400   2.647
 4203SOL    HW212853   3.692   3.353   2.777
 4204SOL     OW12854   2.087   3.159   3.715
 4204SOL    HW112855   2.029   3.093   3.677
 4204SOL    HW212856   2.054   3.172   3.804
 4205SOL     OW12857   1.953   3.091   2.527
 4205SOL    HW112858   1.963   3.046   2.611
 4205SOL    HW212859   2.020   3.051   2.470
 4206SOL     OW12860   2.549   3.265   3.493
 4206SOL    HW112861   2.470   3.223   3.526
 4206SOL    HW212862   2.549   3.352   3.534
 4207SOL     OW12863   3.713   2.005   3.107
 4207SOL    HW112864   3.733   1.912   3.097
 4207SOL    HW212865   3.707   2.039   3.018
 4208SOL     OW12866   2.291   2.294   2.388
 4208SOL    HW112867   2.321   2.224   2.330
 4208SOL    HW212868   2.239   2.249   2.455
 4209SOL     OW12869   3.558   3.332   2.935
 4209SOL    HW112870   3.477   3.318   2.886
 4209SOL    HW212871   3.552   3.272   3.009
 4210SOL     OW12872   2.199   2.424   3.155
 4210SOL    HW112873   2.252   2.364   3.209
 4210SOL    HW212874   2.214   2.394   3.065
 4211SOL     OW12875   2.694   3.443   2.536
 4211SOL    HW112876   2.672   3.508   2.470
 4211SOL    HW212877   2.620   3.382   2.535
 4212SOL     OW12878   3.288   2.089   2.972
 4212SOL    HW112879   3.278   1.997   2.996
 4212SOL    HW212880   3.241   2.137   3.041
 4213SOL     OW12881   2.875   1.876   2.995
 4213SOL    HW112882   2.822   1.810   2.950
 4213SOL    HW212883   2.961   1.836   3.003
 4214SOL     OW12884   2.636   3.196   2.186
 4214SOL    HW112885   2.609   3.104   2.192
 4214SOL    HW212886   2.719   3.200   2.233
 4215SOL     OW12887   2.484   3.412   3.146
 4215SOL    HW112888   2.482   3.494   3.196
 4215SOL    HW212889   2.572   3.408   3.110
 4216SOL     OW12890   3.220   1.912   2.038
 4216SOL    HW112891   3.254   1.844   1.980
 4216SOL    HW212892   3.130   1.884   2.057
 4217SOL     OW12893   3.160   2.327   2.538
 4217SOL    HW112894   3.108   2.407   2.539
 4217SOL    HW212895   3.153   2.293   2.627
 4218SOL     OW12896   3.451   2.063   2.746
 4218SOL    HW112897   3.392   2.087   2.818
 4218SOL    HW212898   3.447   2.139   2.687
 4219SOL     OW12899   1.904   2.926   2.172
 4219SOL    HW112900   1.998   2.917   2.152
 4219SOL    HW212901   1.876   2.837   2.193
 4220SOL     OW12902   2.751   3.525   2.199
 4220SOL    HW112903   2.675   3.509   2.142
 4220SOL    HW212904   2.723   3.597   2.255
 4221SOL     OW12905   2.082   2.485   3.856
 4221SOL    HW112906   1.993   2.480   3.892
 4221SOL    HW212907   2.071   2.463   3.764
 4222SOL     OW12908   2.086   2.146   4.717
 4222SOL    HW112909   2.114   2.111   4.801
 4222SOL    HW212910   1.997   2.114   4.705
 4223SOL     OW12911   1.859   2.247   4.363
 4223SOL    HW112912   1.779   2.275   4.407
 4223SOL    HW212913   1.834   2.170   4.313
 4224SOL     OW12914   2.431   3.162   4.910
 4224SOL    HW112915   2.345   3.167   4.868
 4224SOL    HW212916   2.448   3.250   4.942
 4225SOL     OW12917   3.433   3.385   4.434
 4225SOL    HW112918   3.389   3.360   4.515
 4225SOL    HW212919   3.363   3.386   4.369
 4226SOL     OW12920   2.992   2.564   4.419
 4226SOL    HW112921   3.038   2.647   4.406
 4226SOL    HW212922   2.946   2.574   4.502
 4227SOL     OW12923   2.603   2.998   4.772
 4227SOL    HW112924   2.539   3.036   4.831
 4227SOL    HW212925   2.645   3.073   4.729
 4228SOL     OW12926   2.739   2.621   5.550
 4228SOL    HW112927   2.728   2.690   5.615
 4228SOL    HW212928   2.760   2.667   5.469
 4229SOL     OW12929   2.547   2.857   4.367
 4229SOL    HW112930   2.613   2.851   4.436
 4229SOL    HW212931   2.479   2.913   4.405
 4230SOL     OW12932   2.576   3.011   5.544
 4230SOL    HW112933   2.623   3.087   5.576
 4230SOL    HW212934   2.496   3.046   5.504
 4231SOL     OW12935   2.194   3.277   4.791
 4231SOL    HW112936   2.119   3.237   4.746
 4231SOL    HW212937   2.237   3.329   4.723
 4232SOL     OW12938   3.320   3.365   5.086
 4232SOL    HW112939   3.375   3.443   5.097
 4232SOL    HW212940   3.252   3.375   5.153
 4233SOL     OW12941   2.314   2.252   5.197
 4233SOL    HW112942   2.390   2.195   5.209
 4233SOL    HW212943   2.239   2.198   5.220
 4234SOL     OW12944   3.472   2.304   4.474
 4234SOL    HW112945   3.423   2.329   4.396
 4234SOL    HW212946   3.475   2.383   4.527
 4235SOL     OW12947   2.082   3.579   4.192
 4235SOL    HW112948   2.104   3.654   4.248
 4235SOL    HW212949   2.155   3.573   4.131
 4236SOL     OW12950   2.999   3.205   5.419
 4236SOL    HW112951   3.041   3.198   5.505
 4236SOL    HW212952   2.947   3.125   5.411
 4237SOL     OW12953   2.096   3.309   4.262
 4237SOL    HW112954   2.076   3.402   4.262
 4237SOL    HW212955   2.038   3.272   4.328
 4238SOL     OW12956   2.131   2.953   4.615
 4238SOL    HW112957   2.127   2.865   4.651
 4238SOL    HW212958   2.073   3.005   4.670
 4239SOL     OW12959   2.460   3.656   5.148
 4239SOL    HW112960   2.380   3.637   5.198
 4239SOL    HW212961   2.486   3.743   5.177
 4240SOL     OW12962   2.439   2.847   3.866
 4240SOL    HW112963   2.488   2.892   3.797
 4240SOL    HW212964   2.477   2.879   3.947
 4241SOL     OW12965   3.457   1.991   5.187
 4241SOL    HW112966   3.484   2.071   5.142
 4241SOL    HW212967   3.435   2.019   5.276
 4242SOL     OW12968   1.981   2.518   4.285
 4242SOL    HW112969   1.951   2.430   4.307
 4242SOL    HW212970   1.973   2.567   4.367
 4243SOL     OW12971   3.709   3.614   4.059
 4243SOL    HW112972   3.783   3.591   4.115
 4243SOL    HW212973   3.724   3.706   4.036
 4244SOL     OW12974   1.900   3.448   3.844
 4244SOL    HW112975   1.881   3.357   3.865
 4244SOL    HW212976   1.874   3.497   3.923
 4245SOL     OW12977   3.550   2.800   4.380
 4245SOL    HW112978   3.610   2.731   4.353
 4245SOL    HW212979   3.534   2.851   4.300
 4246SOL     OW12980   3.510   2.983   4.163
 4246SOL    HW112981   3.557   3.031   4.095
 4246SOL    HW212982   3.517   3.039   4.240
 4247SOL     OW12983   1.988   2.607   5.308
 4247SOL    HW112984   2.078   2.639   5.310
 4247SOL    HW212985   1.934   2.687   5.310
 4248SOL     OW12986   2.479   3.254   4.458
 4248SOL    HW112987   2.435   3.170   4.467
 4248SOL    HW212988   2.463   3.281   4.368
 4249SOL     OW12989   3.146   3.098   5.145
 4249SOL    HW112990   3.175   3.029   5.085
 4249SOL    HW212991   3.205   3.092   5.219
 4250SOL     OW12992   2.683   1.866   4.236
 4250SOL    HW112993   2.724   1.950   4.213
 4250SOL    HW212994   2.590   1.886   4.241
 4251SOL     OW12995   2.049   2.822   5.005
 4251SOL    HW112996   2.136   2.784   4.990
 4251SOL    HW212997   1.991   2.775   4.946
 4252SOL     OW12998   3.043   3.677   5.351
 4252SOL    HW112999   3.050   3.738   5.278
 4252SOL    HW213000   3.063   3.591   5.312
 4253SOL     OW13001   2.208   2.111   5.558
 4253SOL    HW113002   2.247   2.194   5.582
 4253SOL    HW213003   2.114   2.122   5.575
 4254SOL     OW13004   3.328   3.284   4.669
 4254SOL    HW113005   3.263   3.299   4.737
 4254SOL    HW213006   3.317   3.192   4.644
 4255SOL     OW13007   3.513   3.623   4.301
 4255SOL    HW113008   3.504   3.586   4.213
 4255SOL    HW213009   3.494   3.550   4.359
 4256SOL     OW13010   2.456   2.577   3.996
 4256SOL    HW113011   2.457   2.661   3.952
 4256SOL    HW213012   2.390   2.587   4.065
 4257SOL     OW13013   3.142   2.232   4.658
 4257SOL    HW113014   3.053   2.197   4.666
 4257SOL    HW213015   3.194   2.176   4.716
 4258SOL     OW13016   3.442   3.534   4.033
 4258SOL    HW113017   3.534   3.560   4.025
 4258SOL    HW213018   3.411   3.527   3.943
 4259SOL     OW13019   2.652   2.480   5.168
 4259SOL    HW113020   2.628   2.454   5.257
 4259SOL    HW213021   2.620   2.409   5.113
 4260SOL     OW13022   3.254   2.336   5.402
 4260SOL    HW113023   3.258   2.381   5.487
 4260SOL    HW213024   3.311   2.260   5.413
 4261SOL     OW13025   2.811   2.746   5.312
 4261SOL    HW113026   2.866   2.679   5.272
 4261SOL    HW213027   2.762   2.783   5.238
 4262SOL     OW13028   2.857   2.270   4.955
 4262SOL    HW113029   2.767   2.286   4.983
 4262SOL    HW213030   2.849   2.229   4.869
 4263SOL     OW13031   2.916   2.564   4.150
 4263SOL    HW113032   2.933   2.556   4.244
 4263SOL    HW213033   2.834   2.516   4.137
 4264SOL     OW13034   1.950   2.685   4.502
 4264SOL    HW113035   2.031   2.678   4.553
 4264SOL    HW213036   1.905   2.761   4.538
 4265SOL     OW13037   1.986   3.736   5.309
 4265SOL    HW113038   1.991   3.713   5.401
 4265SOL    HW213039   1.902   3.700   5.279
 4266SOL     OW13040   2.759   2.212   3.921
 4266SOL    HW113041   2.802   2.274   3.862
 4266SOL    HW213042   2.765   2.128   3.877
 4267SOL     OW13043   3.563   2.430   5.555
 4267SOL    HW113044   3.530   2.505   5.505
 4267SOL    HW213045   3.592   2.368   5.488
 4268SOL     OW13046   3.242   2.997   4.250
 4268SOL    HW113047   3.327   2.990   4.208
 4268SOL    HW213048   3.196   3.066   4.203
 4269SOL     OW13049   2.413   2.037   4.624
 4269SOL    HW113050   2.416   2.067   4.715
 4269SOL    HW213051   2.412   2.117   4.572
 4270SOL     OW13052   2.861   3.304   4.188
 4270SOL    HW113053   2.832   3.381   4.140
 4270SOL    HW213054   2.839   3.323   4.280
 4271SOL     OW13055   2.216   3.677   4.597
 4271SOL    HW113056   2.260   3.592   4.602
 4271SOL    HW213057   2.284   3.741   4.616
 4272SOL     OW13058   3.667   2.914   4.602
 4272SOL    HW113059   3.616   2.892   4.524
 4272SOL    HW213060   3.602   2.921   4.672
 4273SOL     OW13061   3.087   3.403   5.238
 4273SOL    HW113062   3.076   3.331   5.300
 4273SOL    HW213063   3.020   3.388   5.172
 4274SOL     OW13064   2.174   2.823   3.980
 4274SOL    HW113065   2.256   2.842   3.935
 4274SOL    HW213066   2.145   2.739   3.943
 4275SOL     OW13067   3.329   2.641   4.477
 4275SOL    HW113068   3.329   2.584   4.554
 4275SOL    HW213069   3.411   2.690   4.485
 4276SOL     OW13070   2.334   3.132   5.462
 4276SOL    HW113071   2.307   3.136   5.370
 4276SOL    HW213072   2.251   3.128   5.510
 4277SOL     OW13073   2.988   3.640   3.953
 4277SOL    HW113074   2.911   3.602   3.996
 4277SOL    HW213075   3.011   3.578   3.884
 4278SOL     OW13076   2.065   2.130   5.228
 4278SOL    HW113077   1.985   2.183   5.236
 4278SOL    HW213078   2.041   2.046   5.266
 4279SOL     OW13079   3.446   3.240   3.803
 4279SOL    HW113080   3.459   3.332   3.780
 4279SOL    HW213081   3.361   3.238   3.847
 4280SOL     OW13082   2.328   3.599   4.043
 4280SOL    HW113083   2.374   3.652   4.108
 4280SOL    HW213084   2.397   3.567   3.986
 4281SOL     OW13085   3.263   1.974   4.164
 4281SOL    HW113086   3.257   1.953   4.071
 4281SOL    HW213087   3.357   1.986   4.180
 4282SOL     OW13088   2.118   3.652   4.951
 4282SOL    HW113089   2.167   3.581   4.992
 4282SOL    HW213090   2.110   3.625   4.859
 4283SOL     OW13091   2.802   3.562   4.620
 4283SOL    HW113092   2.882   3.514   4.642
 4283SOL    HW213093   2.762   3.511   4.549
 4284SOL     OW13094   2.259   2.555   4.196
 4284SOL    HW113095   2.275   2.462   4.210
 4284SOL    HW213096   2.166   2.567   4.212
 4285SOL     OW13097   3.388   2.086   5.447
 4285SOL    HW113098   3.400   2.106   5.540
 4285SOL    HW213099   3.319   2.019   5.445
 4286SOL     OW13100   2.510   1.978   3.825
 4286SOL    HW113101   2.564   1.903   3.847
 4286SOL    HW213102   2.455   1.948   3.753
 4287SOL     OW13103   2.624   2.140   5.479
 4287SOL    HW113104   2.705   2.090   5.477
 4287SOL    HW213105   2.579   2.108   5.558
 4288SOL     OW13106   2.737   3.385   4.920
 4288SOL    HW113107   2.719   3.347   4.834
 4288SOL    HW213108   2.806   3.331   4.957
 4289SOL     OW13109   3.199   2.452   5.158
 4289SOL    HW113110   3.231   2.421   5.243
 4289SOL    HW213111   3.237   2.539   5.148
 4290SOL     OW13112   2.681   3.249   4.672
 4290SOL    HW113113   2.766   3.239   4.630
 4290SOL    HW213114   2.619   3.257   4.600
 4291SOL     OW13115   2.792   2.371   4.623
 4291SOL    HW113116   2.766   2.362   4.531
 4291SOL    HW213117   2.821   2.284   4.649
 4292SOL     OW13118   2.416   1.925   4.218
 4292SOL    HW113119   2.337   1.925   4.272
 4292SOL    HW213120   2.407   2.002   4.162
 4293SOL     OW13121   2.150   1.910   3.910
 4293SOL    HW113122   2.207   1.976   3.871
 4293SOL    HW213123   2.210   1.849   3.953
 4294SOL     OW13124   2.805   2.112   4.179
 4294SOL    HW113125   2.780   2.150   4.095
 4294SOL    HW213126   2.900   2.128   4.185
 4295SOL     OW13127   2.942   2.548   5.179
 4295SOL    HW113128   2.878   2.477   5.184
 4295SOL    HW213129   3.027   2.503   5.175
 4296SOL     OW13130   3.079   3.436   4.518
 4296SOL    HW113131   3.094   3.501   4.450
 4296SOL    HW213132   3.150   3.451   4.582
 4297SOL     OW13133   2.336   3.017   4.448
 4297SOL    HW113134   2.270   2.996   4.514
 4297SOL    HW213135   2.290   3.005   4.365
 4298SOL     OW13136   3.126   3.653   4.337
 4298SOL    HW113137   3.176   3.715   4.283
 4298SOL    HW213138   3.058   3.707   4.378
 4299SOL     OW13139   2.889   2.389   3.745
 4299SOL    HW113140   2.848   2.475   3.732
 4299SOL    HW213141   2.949   2.403   3.818
 4300SOL     OW13142   1.947   2.416   5.116
 4300SOL    HW113143   2.039   2.416   5.090
 4300SOL    HW213144   1.942   2.485   5.182
 4301SOL     OW13145   2.419   2.089   4.897
 4301SOL    HW113146   2.461   2.019   4.947
 4301SOL    HW213147   2.327   2.086   4.924
 4302SOL     OW13148   2.727   2.318   4.362
 4302SOL    HW113149   2.685   2.375   4.298
 4302SOL    HW213150   2.752   2.240   4.313
 4303SOL     OW13151   2.882   1.917   4.471
 4303SOL    HW113152   2.822   1.912   4.396
 4303SOL    HW213153   2.857   1.843   4.526
 4304SOL     OW13154   3.306   3.023   4.584
 4304SOL    HW113155   3.233   2.963   4.572
 4304SOL    HW213156   3.346   3.031   4.497
 4305SOL     OW13157   3.323   2.472   4.696
 4305SOL    HW113158   3.269   2.393   4.695
 4305SOL    HW213159   3.381   2.461   4.771
 4306SOL     OW13160   2.351   3.283   3.875
 4306SOL    HW113161   2.276   3.256   3.927
 4306SOL    HW213162   2.344   3.233   3.794
 4307SOL     OW13163   3.523   3.129   4.387
 4307SOL    HW113164   3.619   3.124   4.395
 4307SOL    HW213165   3.503   3.222   4.398
 4308SOL     OW13166   2.387   2.124   4.033
 4308SOL    HW113167   2.439   2.081   3.964
 4308SOL    HW213168   2.359   2.206   3.993
 4309SOL     OW13169   3.609   3.105   5.281
 4309SOL    HW113170   3.696   3.067   5.274
 4309SOL    HW213171   3.624   3.194   5.312
 4310SOL     OW13172   2.915   3.216   5.056
 4310SOL    HW113173   2.839   3.184   5.105
 4310SOL    HW213174   2.990   3.174   5.097
 4311SOL     OW13175   3.471   3.491   5.383
 4311SOL    HW113176   3.463   3.525   5.294
 4311SOL    HW213177   3.552   3.440   5.382
 4312SOL     OW13178   2.999   3.076   4.826
 4312SOL    HW113179   2.938   3.113   4.890
 4312SOL    HW213180   2.970   3.111   4.742
 4313SOL     OW13181   3.483   2.957   4.801
 4313SOL    HW113182   3.476   3.020   4.872
 4313SOL    HW213183   3.409   2.976   4.744
 4314SOL     OW13184   2.781   1.953   5.115
 4314SOL    HW113185   2.804   1.936   5.023
 4314SOL    HW213186   2.860   1.993   5.152
 4315SOL     OW13187   2.846   2.978   5.446
 4315SOL    HW113188   2.755   2.994   5.472
 4315SOL    HW213189   2.842   2.898   5.393
 4316SOL     OW13190   2.573   2.927   4.096
 4316SOL    HW113191   2.557   2.905   4.188
 4316SOL    HW213192   2.647   2.872   4.070
 4317SOL     OW13193   2.284   2.682   4.977
 4317SOL    HW113194   2.352   2.692   5.044
 4317SOL    HW213195   2.250   2.594   4.990
 4318SOL     OW13196   3.125   2.236   5.007
 4318SOL    HW113197   3.157   2.314   5.052
 4318SOL    HW213198   3.034   2.256   4.985
 4319SOL     OW13199   1.938   3.436   5.083
 4319SOL    HW113200   1.910   3.507   5.025
 4319SOL    HW213201   2.033   3.434   5.074
 4320SOL     OW13202   2.195   2.984   4.213
 4320SOL    HW113203   2.196   3.058   4.151
 4320SOL    HW213204   2.194   2.906   4.157
 4321SOL     OW13205   2.407   2.391   4.582
 4321SOL    HW113206   2.421   2.449   4.508
 4321SOL    HW213207   2.474   2.416   4.646
 4322SOL     OW13208   3.113   3.214   4.111
 4322SOL    HW113209   3.167   3.285   4.146
 4322SOL    HW213210   3.025   3.232   4.144
 4323SOL     OW13211   3.154   3.324   4.873
 4323SOL    HW113212   3.209   3.330   4.951
 4323SOL    HW213213   3.099   3.246   4.887
 4324SOL     OW13214   3.464   2.531   4.270
 4324SOL    HW113215   3.400   2.569   4.330
 4324SOL    HW213216   3.442   2.567   4.185
 4325SOL     OW13217   2.207   3.393   5.032
 4325SOL    HW113218   2.197   3.347   4.949
 4325SOL    HW213219   2.302   3.404   5.042
 4326SOL     OW13220   2.281   2.608   5.329
 4326SOL    HW113221   2.344   2.650   5.271
 4326SOL    HW213222   2.320   2.522   5.348
 4327SOL     OW13223   3.473   2.643   5.412
 4327SOL    HW113224   3.387   2.685   5.406
 4327SOL    HW213225   3.525   2.685   5.343
 4328SOL     OW13226   2.858   1.997   5.478
 4328SOL    HW113227   2.916   2.070   5.458
 4328SOL    HW213228   2.907   1.919   5.453
 4329SOL     OW13229   2.359   1.896   5.475
 4329SOL    HW113230   2.310   1.844   5.411
 4329SOL    HW213231   2.304   1.973   5.491
 4330SOL     OW13232   2.447   2.736   4.757
 4330SOL    HW113233   2.482   2.826   4.760
 4330SOL    HW213234   2.391   2.730   4.834
 4331SOL     OW13235   3.203   2.718   4.753
 4331SOL    HW113236   3.119   2.704   4.709
 4331SOL    HW213237   3.249   2.635   4.743
 4332SOL     OW13238   3.043   2.383   3.972
 4332SOL    HW113239   3.060   2.309   4.029
 4332SOL    HW213240   3.019   2.455   4.031
 4333SOL     OW13241   2.157   2.058   4.970
 4333SOL    HW113242   2.121   2.090   5.053
 4333SOL    HW213243   2.139   1.964   4.971
 4334SOL     OW13244   1.910   3.174   4.997
 4334SOL    HW113245   1.940   3.118   5.067
 4334SOL    HW213246   1.914   3.263   5.033
 4335SOL     OW13247   2.579   2.489   4.774
 4335SOL    HW113248   2.658   2.479   4.720
 4335SOL    HW213249   2.551   2.579   4.758
 4336SOL     OW13250   3.603   2.822   5.584
 4336SOL    HW113251   3.560   2.753   5.533
 4336SOL    HW213252   3.542   2.840   5.655
 4337SOL     OW13253   2.173   1.923   4.349
 4337SOL    HW113254   2.148   2.013   4.369
 4337SOL    HW213255   2.180   1.880   4.434
 4338SOL     OW13256   2.890   2.620   4.681
 4338SOL    HW113257   2.880   2.637   4.775
 4338SOL    HW213258   2.864   2.529   4.670
 4339SOL     OW13259   2.842   3.428   5.447
 4339SOL    HW113260   2.826   3.472   5.363
 4339SOL    HW213261   2.886   3.346   5.424
 4340SOL     OW13262   3.711   3.362   5.328
 4340SOL    HW113263   3.734   3.390   5.239
 4340SOL    HW213264   3.791   3.375   5.379
 4341SOL     OW13265   2.213   2.780   5.534
 4341SOL    HW113266   2.293   2.798   5.583
 4341SOL    HW213267   2.240   2.717   5.467
 4342SOL     OW13268   3.137   2.663   3.728
 4342SOL    HW113269   3.177   2.638   3.811
 4342SOL    HW213270   3.210   2.693   3.674
 4343SOL     OW13271   2.932   3.203   4.583
 4343SOL    HW113272   2.936   3.132   4.519
 4343SOL    HW213273   2.989   3.271   4.546
 4344SOL     OW13274   2.171   2.672   4.669
 4344SOL    HW113275   2.264   2.692   4.665
 4344SOL    HW213276   2.167   2.581   4.701
 4345SOL     OW13277   2.187   2.394   4.736
 4345SOL    HW113278   2.151   2.306   4.724
 4345SOL    HW213279   2.264   2.396   4.680
 4346SOL     OW13280   2.997   2.233   5.411
 4346SOL    HW113281   2.949   2.287   5.474
 4346SOL    HW213282   3.083   2.274   5.406
 4347SOL     OW13283   3.022   2.058   5.197
 4347SOL    HW113284   3.011   2.121   5.268
 4347SOL    HW213285   3.065   2.109   5.128
 4348SOL     OW13286   1.872   3.176   3.917
 4348SOL    HW113287   1.784   3.193   3.882
 4348SOL    HW213288   1.866   3.087   3.953
 4349SOL     OW13289   1.952   3.642   4.667
 4349SOL    HW113290   1.921   3.565   4.619
 4349SOL    HW213291   2.041   3.656   4.635
 4350SOL     OW13292   2.352   3.436   4.627
 4350SOL    HW113293   2.421   3.498   4.651
 4350SOL    HW213294   2.395   3.374   4.569
 4351SOL     OW13295   2.831   2.648   4.946
 4351SOL    HW113296   2.893   2.631   5.018
 4351SOL    HW213297   2.749   2.609   4.976
 4352SOL     OW13298   1.899   2.413   4.841
 4352SOL    HW113299   1.981   2.408   4.791
 4352SOL    HW213300   1.928   2.413   4.933
 4353SOL     OW13301   2.052   2.386   5.457
 4353SOL    HW113302   2.108   2.342   5.393
 4353SOL    HW213303   2.018   2.462   5.411
 4354SOL     OW13304   3.244   2.793   5.380
 4354SOL    HW113305   3.265   2.887   5.376
 4354SOL    HW213306   3.240   2.766   5.289
 4355SOL     OW13307   2.681   2.433   4.092
 4355SOL    HW113308   2.686   2.358   4.032
 4355SOL    HW213309   2.605   2.483   4.061
 4356SOL     OW13310   3.503   2.462   4.903
 4356SOL    HW113311   3.494   2.404   4.978
 4356SOL    HW213312   3.591   2.445   4.869
 4357SOL     OW13313   2.098   3.410   5.446
 4357SOL    HW113314   2.077   3.473   5.515
 4357SOL    HW213315   2.107   3.326   5.492
 4358SOL     OW13316   2.579   2.305   4.974
 4358SOL    HW113317   2.519   2.234   4.950
 4358SOL    HW213318   2.569   2.369   4.904
 4359SOL     OW13319   2.781   3.540   5.197
 4359SOL    HW113320   2.758   3.500   5.113
 4359SOL    HW213321   2.777   3.634   5.180
 4360SOL     OW13322   2.319   2.353   3.900
 4360SOL    HW113323   2.379   2.423   3.927
 4360SOL    HW213324   2.234   2.396   3.894
 4361SOL     OW13325   2.001   3.006   5.199
 4361SOL    HW113326   2.004   2.960   5.283
 4361SOL    HW213327   2.019   2.938   5.134
 4362SOL     OW13328   3.180   2.907   4.944
 4362SOL    HW113329   3.200   2.841   4.877
 4362SOL    HW213330   3.116   2.965   4.904
 4363SOL     OW13331   3.154   2.683   4.020
 4363SOL    HW113332   3.093   2.654   4.088
 4363SOL    HW213333   3.110   2.758   3.979
 4364SOL     OW13334   3.643   3.596   4.883
 4364SOL    HW113335   3.703   3.622   4.813
 4364SOL    HW213336   3.615   3.507   4.859
 4365SOL     OW13337   3.101   3.594   4.826
 4365SOL    HW113338   3.184   3.619   4.786
 4365SOL    HW213339   3.112   3.502   4.848
 4366SOL     OW13340   1.951   3.126   4.733
 4366SOL    HW113341   1.933   3.142   4.826
 4366SOL    HW213342   1.879   3.071   4.703
 4367SOL     OW13343   2.542   3.535   5.465
 4367SOL    HW113344   2.483   3.609   5.455
 4367SOL    HW213345   2.614   3.552   5.404
 4368SOL     OW13346   3.597   2.007   4.241
 4368SOL    HW113347   3.662   1.990   4.173
 4368SOL    HW213348   3.575   1.920   4.275
 4369SOL     OW13349   3.256   3.431   4.214
 4369SOL    HW113350   3.316   3.466   4.147
 4369SOL    HW213351   3.206   3.507   4.243
 4370SOL     OW13352   2.003   3.658   5.567
 4370SOL    HW113353   1.953   3.591   5.613
 4370SOL    HW213354   2.050   3.705   5.636
 4371SOL     OW13355   3.129   2.799   4.393
 4371SOL    HW113356   3.203   2.744   4.420
 4371SOL    HW213357   3.168   2.866   4.336
 4372SOL     OW13358   2.664   3.139   5.146
 4372SOL    HW113359   2.637   3.181   5.228
 4372SOL    HW213360   2.592   3.157   5.085
 4373SOL     OW13361   2.531   3.487   3.878
 4373SOL    HW113362   2.539   3.505   3.784
 4373SOL    HW213363   2.475   3.410   3.883
 4374SOL     OW13364   3.480   3.590   5.116
 4374SOL    HW113365   3.535   3.594   5.038
 4374SOL    HW213366   3.466   3.682   5.140
 4375SOL     OW13367   3.705   2.031   4.688
 4375SOL    HW113368   3.733   1.943   4.664
 4375SOL    HW213369   3.618   2.040   4.649
 4376SOL     OW13370   2.117   2.174   4.437
 4376SOL    HW113371   2.031   2.209   4.415
 4376SOL    HW213372   2.117   2.170   4.533
 4377SOL     OW13373   3.063   3.466   3.754
 4377SOL    HW113374   3.055   3.377   3.787
 4377SOL    HW213375   2.992   3.474   3.690
 4378SOL     OW13376   2.686   2.869   5.100
 4378SOL    HW113377   2.729   2.862   5.015
 4378SOL    HW213378   2.681   2.963   5.117
 4379SOL     OW13379   2.776   2.772   4.012
 4379SOL    HW113380   2.840   2.804   3.947
 4379SOL    HW213381   2.824   2.704   4.061
 4380SOL     OW13382   3.337   3.508   3.771
 4380SOL    HW113383   3.244   3.493   3.757
 4380SOL    HW213384   3.375   3.508   3.683
 4381SOL     OW13385   2.228   3.168   5.217
 4381SOL    HW113386   2.216   3.244   5.160
 4381SOL    HW213387   2.151   3.113   5.202
 4382SOL     OW13388   3.470   3.148   5.004
 4382SOL    HW113389   3.527   3.129   5.079
 4382SOL    HW213390   3.409   3.214   5.036
 4383SOL     OW13391   2.920   2.977   4.435
 4383SOL    HW113392   2.848   2.926   4.473
 4383SOL    HW213393   2.986   2.912   4.411
 4384SOL     OW13394   2.888   2.105   4.690
 4384SOL    HW113395   2.886   2.059   4.606
 4384SOL    HW213396   2.882   2.037   4.756
 4385SOL     OW13397   2.469   3.349   4.202
 4385SOL    HW113398   2.518   3.300   4.136
 4385SOL    HW213399   2.392   3.382   4.155
 4386SOL     OW13400   3.590   2.253   5.104
 4386SOL    HW113401   3.663   2.316   5.104
 4386SOL    HW213402   3.620   2.183   5.046
 4387SOL     OW13403   2.126   3.203   4.019
 4387SOL    HW113404   2.035   3.199   3.993
 4387SOL    HW213405   2.125   3.245   4.105
 4388SOL     OW13406   1.977   2.898   5.451
 4388SOL    HW113407   1.901   2.870   5.501
 4388SOL    HW213408   2.051   2.853   5.492
 4389SOL     OW13409   2.539   2.055   5.223
 4389SOL    HW113410   2.624   2.033   5.184
 4389SOL    HW213411   2.561   2.088   5.310
 4390SOL     OW13412   1.944   2.187   3.754
 4390SOL    HW113413   1.857   2.169   3.717
 4390SOL    HW213414   1.973   2.266   3.708
 4391SOL     OW13415   3.286   2.718   5.120
 4391SOL    HW113416   3.236   2.780   5.066
 4391SOL    HW213417   3.374   2.721   5.084
 4392SOL     OW13418   1.921   2.015   4.023
 4392SOL    HW113419   1.909   2.094   3.971
 4392SOL    HW213420   2.007   1.981   3.996
 4393SOL     OW13421   3.032   3.208   3.841
 4393SOL    HW113422   2.945   3.170   3.848
 4393SOL    HW213423   3.069   3.199   3.929
 4394SOL     OW13424   2.483   2.693   5.160
 4394SOL    HW113425   2.541   2.768   5.146
 4394SOL    HW213426   2.542   2.618   5.166
 4395SOL     OW13427   3.345   3.650   4.708
 4395SOL    HW113428   3.368   3.717   4.644
 4395SOL    HW213429   3.429   3.619   4.742
 4396SOL     OW13430   2.581   2.420   5.422
 4396SOL    HW113431   2.625   2.478   5.483
 4396SOL    HW213432   2.597   2.332   5.456
 4397SOL     OW13433   3.335   3.055   5.351
 4397SOL    HW113434   3.324   3.070   5.445
 4397SOL    HW213435   3.427   3.075   5.335
 4398SOL     OW13436   2.230   3.603   5.291
 4398SOL    HW113437   2.148   3.650   5.276
 4398SOL    HW213438   2.204   3.521   5.331
 4399SOL     OW13439   3.525   2.741   4.979
 4399SOL    HW113440   3.521   2.656   4.935
 4399SOL    HW213441   3.514   2.804   4.908
 4400SOL     OW13442   3.076   2.184   4.175
 4400SOL    HW113443   3.139   2.112   4.171
 4400SOL    HW213444   3.103   2.234   4.252
 4401SOL     OW13445   2.448   2.594   4.397
 4401SOL    HW113446   2.488   2.680   4.384
 4401SOL    HW213447   2.384   2.586   4.327
 4402SOL     OW13448   3.617   2.225   5.377
 4402SOL    HW113449   3.603   2.242   5.283
 4402SOL    HW213450   3.544   2.169   5.402
 4403SOL     OW13451   3.611   2.795   5.234
 4403SOL    HW113452   3.599   2.889   5.247
 4403SOL    HW213453   3.592   2.780   5.141
 4404SOL     OW13454   2.723   3.226   3.771
 4404SOL    HW113455   2.687   3.245   3.857
 4404SOL    HW213456   2.736   3.312   3.731
 4405SOL     OW13457   2.526   3.644   4.659
 4405SOL    HW113458   2.509   3.736   4.642
 4405SOL    HW213459   2.621   3.636   4.655
 4406SOL     OW13460   2.731   2.834   4.577
 4406SOL    HW113461   2.781   2.761   4.614
 4406SOL    HW213462   2.691   2.876   4.653
 4407SOL     OW13463   2.951   2.847   3.817
 4407SOL    HW113464   2.919   2.902   3.745
 4407SOL    HW213465   3.007   2.782   3.775
 4408SOL     OW13466   3.705   3.416   4.566
 4408SOL    HW113467   3.627   3.406   4.512
 4408SOL    HW213468   3.692   3.356   4.639
 4409SOL     OW13469   2.088   3.159   5.575
 4409SOL    HW113470   2.029   3.091   5.541
 4409SOL    HW213471   2.060   3.171   5.666
 4410SOL     OW13472   1.954   3.090   4.389
 4410SOL    HW113473   1.966   3.046   4.473
 4410SOL    HW213474   2.020   3.052   4.332
 4411SOL     OW13475   2.547   3.272   5.354
 4411SOL    HW113476   2.470   3.229   5.390
 4411SOL    HW213477   2.545   3.360   5.393
 4412SOL     OW13478   3.672   2.043   4.959
 4412SOL    HW113479   3.679   1.948   4.972
 4412SOL    HW213480   3.684   2.055   4.865
 4413SOL     OW13481   2.288   2.294   4.248
 4413SOL    HW113482   2.320   2.223   4.193
 4413SOL    HW213483   2.239   2.250   4.317
 4414SOL     OW13484   3.559   3.345   4.812
 4414SOL    HW113485   3.479   3.327   4.763
 4414SOL    HW213486   3.562   3.277   4.879
 4415SOL     OW13487   2.199   2.423   5.017
 4415SOL    HW113488   2.252   2.365   5.071
 4415SOL    HW213489   2.215   2.394   4.927
 4416SOL     OW13490   2.695   3.440   4.399
 4416SOL    HW113491   2.671   3.506   4.333
 4416SOL    HW213492   2.621   3.381   4.402
 4417SOL     OW13493   3.290   2.092   4.842
 4417SOL    HW113494   3.310   2.010   4.885
 4417SOL    HW213495   3.239   2.142   4.906
 4418SOL     OW13496   2.871   1.878   4.857
 4418SOL    HW113497   2.816   1.813   4.814
 4418SOL    HW213498   2.958   1.839   4.859
 4419SOL     OW13499   2.640   3.195   4.042
 4419SOL    HW113500   2.612   3.104   4.055
 4419SOL    HW213501   2.719   3.203   4.096
 4420SOL     OW13502   2.481   3.419   5.011
 4420SOL    HW113503   2.481   3.502   5.059
 4420SOL    HW213504   2.570   3.412   4.976
 4421SOL     OW13505   3.215   1.910   3.899
 4421SOL    HW113506   3.239   1.851   3.827
 4421SOL    HW213507   3.127   1.882   3.924
 4422SOL     OW13508   3.147   2.327   4.397
 4422SOL    HW113509   3.096   2.408   4.405
 4422SOL    HW213510   3.151   2.292   4.486
 4423SOL     OW13511   3.445   2.055   4.610
 4423SOL    HW113512   3.390   2.082   4.684
 4423SOL    HW213513   3.446   2.132   4.552
 4424SOL     OW13514   1.904   2.925   4.034
 4424SOL    HW113515   1.998   2.917   4.015
 4424SOL    HW213516   1.876   2.836   4.055
 4425SOL     OW13517   2.752   3.524   4.060
 4425SOL    HW113518   2.677   3.509   4.003
 4425SOL    HW213519   2.724   3.594   4.118
 4426SOL     OW13520   2.081   2.486   5.718
 4426SOL    HW113521   1.993   2.480   5.754
 4426SOL    HW213522   2.072   2.464   5.626
 4427SOL     OW13523   2.083   2.152   6.582
 4427SOL    HW113524   2.116   2.112   6.662
 4427SOL    HW213525   1.996   2.116   6.571
 4428SOL     OW13526   1.859   2.248   6.226
 4428SOL    HW113527   1.778   2.276   6.269
 4428SOL    HW213528   1.833   2.170   6.176
 4429SOL     OW13529   2.421   3.149   6.758
 4429SOL    HW113530   2.338   3.171   6.715
 4429SOL    HW213531   2.445   3.229   6.804
 4430SOL     OW13532   3.435   3.377   6.296
 4430SOL    HW113533   3.389   3.354   6.377
 4430SOL    HW213534   3.366   3.381   6.229
 4431SOL     OW13535   2.993   2.560   6.281
 4431SOL    HW113536   3.040   2.643   6.271
 4431SOL    HW213537   2.944   2.569   6.362
 4432SOL     OW13538   3.646   2.458   5.809
 4432SOL    HW113539   3.617   2.453   5.718
 4432SOL    HW213540   3.603   2.384   5.853
 4433SOL     OW13541   2.614   2.999   6.629
 4433SOL    HW113542   2.548   3.028   6.693
 4433SOL    HW213543   2.643   3.080   6.586
 4434SOL     OW13544   2.547   2.857   6.230
 4434SOL    HW113545   2.614   2.850   6.298
 4434SOL    HW213546   2.479   2.913   6.269
 4435SOL     OW13547   2.194   3.270   6.645
 4435SOL    HW113548   2.117   3.233   6.602
 4435SOL    HW213549   2.235   3.325   6.577
 4436SOL     OW13550   3.464   2.305   6.333
 4436SOL    HW113551   3.393   2.321   6.272
 4436SOL    HW213552   3.454   2.373   6.400
 4437SOL     OW13553   2.081   3.579   6.053
 4437SOL    HW113554   2.103   3.653   6.110
 4437SOL    HW213555   2.156   3.570   5.995
 4438SOL     OW13556   2.096   3.307   6.122
 4438SOL    HW113557   2.075   3.401   6.125
 4438SOL    HW213558   2.039   3.268   6.188
 4439SOL     OW13559   2.128   2.955   6.479
 4439SOL    HW113560   2.128   2.867   6.517
 4439SOL    HW213561   2.072   3.007   6.538
 4440SOL     OW13562   2.472   3.671   6.975
 4440SOL    HW113563   2.390   3.647   0.016
 4440SOL    HW213564   2.494   3.757   0.012
 4441SOL     OW13565   2.438   2.848   5.728
 4441SOL    HW113566   2.488   2.891   5.659
 4441SOL    HW213567   2.478   2.879   5.809
 4442SOL     OW13568   1.980   2.520   6.148
 4442SOL    HW113569   1.951   2.431   6.169
 4442SOL    HW213570   1.973   2.568   6.230
 4443SOL     OW13571   3.705   3.614   5.915
 4443SOL    HW113572   3.775   3.589   5.976
 4443SOL    HW213573   3.722   3.706   5.896
 4444SOL     OW13574   1.903   3.451   5.705
 4444SOL    HW113575   1.884   3.359   5.725
 4444SOL    HW213576   1.876   3.498   5.784
 4445SOL     OW13577   3.553   2.782   6.231
 4445SOL    HW113578   3.633   2.736   6.207
 4445SOL    HW213579   3.530   2.833   6.153
 4446SOL     OW13580   3.513   2.965   6.015
 4446SOL    HW113581   3.600   2.964   5.974
 4446SOL    HW213582   3.520   3.029   6.085
 4447SOL     OW13583   2.478   3.254   6.320
 4447SOL    HW113584   2.434   3.169   6.329
 4447SOL    HW213585   2.461   3.280   6.230
 4448SOL     OW13586   2.684   1.866   6.100
 4448SOL    HW113587   2.724   1.949   6.076
 4448SOL    HW213588   2.590   1.886   6.104
 4449SOL     OW13589   2.056   2.839   6.844
 4449SOL    HW113590   2.135   2.787   6.830
 4449SOL    HW213591   1.984   2.781   6.818
 4450SOL     OW13592   3.394   2.863   5.786
 4450SOL    HW113593   3.324   2.806   5.819
 4450SOL    HW213594   3.437   2.896   5.865
 4451SOL     OW13595   3.313   3.285   6.528
 4451SOL    HW113596   3.258   3.294   6.606
 4451SOL    HW213597   3.306   3.193   6.504
 4452SOL     OW13598   3.511   3.622   6.161
 4452SOL    HW113599   3.494   3.584   6.075
 4452SOL    HW213600   3.498   3.549   6.222
 4453SOL     OW13601   2.456   2.576   5.857
 4453SOL    HW113602   2.459   2.661   5.813
 4453SOL    HW213603   2.391   2.587   5.926
 4454SOL     OW13604   3.139   2.228   6.518
 4454SOL    HW113605   3.049   2.195   6.527
 4454SOL    HW213606   3.190   2.174   6.579
 4455SOL     OW13607   3.440   3.536   5.897
 4455SOL    HW113608   3.532   3.559   5.889
 4455SOL    HW213609   3.411   3.519   5.807
 4456SOL     OW13610   2.653   2.511   0.022
 4456SOL    HW113611   2.595   2.533   0.096
 4456SOL    HW213612   2.604   2.445   6.972
 4457SOL     OW13613   2.875   2.272   6.796
 4457SOL    HW113614   2.845   2.308   6.879
 4457SOL    HW213615   2.796   2.240   6.753
 4458SOL     OW13616   2.917   2.560   6.010
 4458SOL    HW113617   2.936   2.555   6.103
 4458SOL    HW213618   2.833   2.515   6.000
 4459SOL     OW13619   1.953   2.683   6.366
 4459SOL    HW113620   2.034   2.678   6.417
 4459SOL    HW213621   1.908   2.760   6.400
 4460SOL     OW13622   2.003   3.690   0.129
 4460SOL    HW113623   1.945   3.655   0.196
 4460SOL    HW213624   1.946   3.706   0.053
 4461SOL     OW13625   2.762   2.212   5.782
 4461SOL    HW113626   2.801   2.276   5.723
 4461SOL    HW213627   2.773   2.128   5.737
 4462SOL     OW13628   3.245   3.005   6.126
 4462SOL    HW113629   3.325   2.994   6.074
 4462SOL    HW213630   3.192   3.066   6.075
 4463SOL     OW13631   2.411   2.035   6.483
 4463SOL    HW113632   2.417   2.067   6.573
 4463SOL    HW213633   2.414   2.115   6.430
 4464SOL     OW13634   2.860   3.306   6.053
 4464SOL    HW113635   2.831   3.382   6.002
 4464SOL    HW213636   2.836   3.326   6.143
 4465SOL     OW13637   2.216   3.678   6.458
 4465SOL    HW113638   2.260   3.593   6.463
 4465SOL    HW213639   2.285   3.742   6.476
 4466SOL     OW13640   3.666   2.914   6.454
 4466SOL    HW113641   3.614   2.891   6.376
 4466SOL    HW213642   3.602   2.915   6.525
 4467SOL     OW13643   2.174   2.823   5.842
 4467SOL    HW113644   2.257   2.842   5.798
 4467SOL    HW213645   2.146   2.739   5.806
 4468SOL     OW13646   3.343   2.613   6.302
 4468SOL    HW113647   3.339   2.571   6.388
 4468SOL    HW213648   3.421   2.667   6.306
 4469SOL     OW13649   2.987   3.641   5.813
 4469SOL    HW113650   2.911   3.602   5.856
 4469SOL    HW213651   3.012   3.577   5.746
 4470SOL     OW13652   3.491   3.244   5.677
 4470SOL    HW113653   3.449   3.329   5.663
 4470SOL    HW213654   3.423   3.180   5.656
 4471SOL     OW13655   2.324   3.599   5.904
 4471SOL    HW113656   2.370   3.653   5.968
 4471SOL    HW213657   2.393   3.563   5.849
 4472SOL     OW13658   3.262   1.969   6.029
 4472SOL    HW113659   3.255   1.944   5.937
 4472SOL    HW213660   3.356   1.974   6.047
 4473SOL     OW13661   2.122   3.658   6.811
 4473SOL    HW113662   2.162   3.589   6.864
 4473SOL    HW213663   2.113   3.619   6.724
 4474SOL     OW13664   2.802   3.560   6.479
 4474SOL    HW113665   2.883   3.512   6.499
 4474SOL    HW213666   2.761   3.510   6.409
 4475SOL     OW13667   2.258   2.556   6.057
 4475SOL    HW113668   2.274   2.463   6.071
 4475SOL    HW213669   2.165   2.568   6.074
 4476SOL     OW13670   2.509   1.978   5.688
 4476SOL    HW113671   2.566   1.905   5.707
 4476SOL    HW213672   2.454   1.948   5.615
 4477SOL     OW13673   2.724   3.381   6.769
 4477SOL    HW113674   2.711   3.344   6.682
 4477SOL    HW213675   2.756   3.307   6.821
 4478SOL     OW13676   2.678   3.249   6.526
 4478SOL    HW113677   2.764   3.239   6.484
 4478SOL    HW213678   2.616   3.256   6.454
 4479SOL     OW13679   2.793   2.373   6.486
 4479SOL    HW113680   2.767   2.361   6.394
 4479SOL    HW213681   2.827   2.287   6.512
 4480SOL     OW13682   2.416   1.925   6.080
 4480SOL    HW113683   2.337   1.925   6.134
 4480SOL    HW213684   2.407   2.002   6.024
 4481SOL     OW13685   3.290   3.063   5.624
 4481SOL    HW113686   3.320   2.989   5.676
 4481SOL    HW213687   3.205   3.086   5.661
 4482SOL     OW13688   2.151   1.910   5.772
 4482SOL    HW113689   2.208   1.975   5.732
 4482SOL    HW213690   2.211   1.848   5.815
 4483SOL     OW13691   2.805   2.111   6.040
 4483SOL    HW113692   2.781   2.150   5.956
 4483SOL    HW213693   2.899   2.126   6.048
 4484SOL     OW13694   3.077   3.436   6.382
 4484SOL    HW113695   3.094   3.503   6.315
 4484SOL    HW213696   3.155   3.437   6.437
 4485SOL     OW13697   2.334   3.017   6.311
 4485SOL    HW113698   2.269   2.996   6.378
 4485SOL    HW213699   2.288   3.004   6.228
 4486SOL     OW13700   3.124   3.653   6.200
 4486SOL    HW113701   3.173   3.716   6.146
 4486SOL    HW213702   3.054   3.705   6.239
 4487SOL     OW13703   2.887   2.394   5.613
 4487SOL    HW113704   2.843   2.477   5.594
 4487SOL    HW213705   2.951   2.415   5.681
 4488SOL     OW13706   2.423   2.085   6.756
 4488SOL    HW113707   2.465   2.009   6.796
 4488SOL    HW213708   2.332   2.081   6.786
 4489SOL     OW13709   2.726   2.319   6.224
 4489SOL    HW113710   2.685   2.375   6.158
 4489SOL    HW213711   2.751   2.240   6.176
 4490SOL     OW13712   2.885   1.907   6.324
 4490SOL    HW113713   2.821   1.904   6.252
 4490SOL    HW213714   2.858   1.837   6.383
 4491SOL     OW13715   3.293   3.020   6.441
 4491SOL    HW113716   3.232   2.946   6.445
 4491SOL    HW213717   3.313   3.029   6.348
 4492SOL     OW13718   3.328   2.470   6.544
 4492SOL    HW113719   3.268   2.396   6.557
 4492SOL    HW213720   3.386   2.467   6.619
 4493SOL     OW13721   3.702   2.671   5.971
 4493SOL    HW113722   3.760   2.623   6.030
 4493SOL    HW213723   3.679   2.607   5.903
 4494SOL     OW13724   2.351   3.285   5.737
 4494SOL    HW113725   2.275   3.256   5.787
 4494SOL    HW213726   2.349   3.232   5.658
 4495SOL     OW13727   3.543   3.129   6.223
 4495SOL    HW113728   3.637   3.127   6.241
 4495SOL    HW213729   3.515   3.217   6.249
 4496SOL     OW13730   3.255   2.435   5.657
 4496SOL    HW113731   3.193   2.413   5.727
 4496SOL    HW213732   3.340   2.407   5.690
 4497SOL     OW13733   2.387   2.124   5.895
 4497SOL    HW113734   2.438   2.080   5.827
 4497SOL    HW213735   2.359   2.206   5.855
 4498SOL     OW13736   3.624   3.034   0.164
 4498SOL    HW113737   3.717   3.031   0.142
 4498SOL    HW213738   3.597   3.123   0.140
 4499SOL     OW13739   2.978   3.098   6.690
 4499SOL    HW113740   2.898   3.055   6.719
 4499SOL    HW213741   2.961   3.125   6.600
 4500SOL     OW13742   3.479   2.945   6.648
 4500SOL    HW113743   3.476   3.014   6.714
 4500SOL    HW213744   3.404   2.963   6.591
 4501SOL     OW13745   2.573   2.925   5.958
 4501SOL    HW113746   2.558   2.904   6.050
 4501SOL    HW213747   2.648   2.871   5.932
 4502SOL     OW13748   2.289   2.678   6.851
 4502SOL    HW113749   2.342   2.699   6.928
 4502SOL    HW213750   2.258   2.589   6.867
 4503SOL     OW13751   3.138   2.248   6.856
 4503SOL    HW113752   3.164   2.320   6.914
 4503SOL    HW213753   3.049   2.271   6.828
 4504SOL     OW13754   1.930   3.441   6.943
 4504SOL    HW113755   1.903   3.508   6.881
 4504SOL    HW213756   2.025   3.433   6.929
 4505SOL     OW13757   2.194   2.983   6.076
 4505SOL    HW113758   2.198   3.057   6.014
 4505SOL    HW213759   2.193   2.905   6.020
 4506SOL     OW13760   2.406   2.392   6.443
 4506SOL    HW113761   2.420   2.451   6.369
 4506SOL    HW213762   2.475   2.415   6.506
 4507SOL     OW13763   3.109   3.213   5.976
 4507SOL    HW113764   3.165   3.283   6.010
 4507SOL    HW213765   3.022   3.234   6.010
 4508SOL     OW13766   3.149   3.305   6.751
 4508SOL    HW113767   3.187   3.278   6.835
 4508SOL    HW213768   3.084   3.238   6.731
 4509SOL     OW13769   3.438   2.482   6.068
 4509SOL    HW113770   3.389   2.524   6.139
 4509SOL    HW213771   3.482   2.555   6.024
 4510SOL     OW13772   2.197   3.397   6.881
 4510SOL    HW113773   2.188   3.342   6.803
 4510SOL    HW213774   2.291   3.405   6.894
 4511SOL     OW13775   2.445   2.736   6.623
 4511SOL    HW113776   2.482   2.824   6.625
 4511SOL    HW213777   2.393   2.730   6.703
 4512SOL     OW13778   3.197   2.724   6.584
 4512SOL    HW113779   3.109   2.694   6.562
 4512SOL    HW213780   3.250   2.644   6.584
 4513SOL     OW13781   3.059   2.388   5.847
 4513SOL    HW113782   3.069   2.311   5.902
 4513SOL    HW213783   3.018   2.453   5.904
 4514SOL     OW13784   2.163   2.058   6.835
 4514SOL    HW113785   2.122   2.085   6.917
 4514SOL    HW213786   2.147   1.964   6.830
 4515SOL     OW13787   1.892   3.176   6.869
 4515SOL    HW113788   1.936   3.121   6.934
 4515SOL    HW213789   1.902   3.265   6.903
 4516SOL     OW13790   2.579   2.482   6.636
 4516SOL    HW113791   2.660   2.469   6.586
 4516SOL    HW213792   2.557   2.575   6.622
 4517SOL     OW13793   2.172   1.923   6.210
 4517SOL    HW113794   2.147   2.013   6.230
 4517SOL    HW213795   2.180   1.880   6.296
 4518SOL     OW13796   3.487   2.244   5.943
 4518SOL    HW113797   3.514   2.178   6.006
 4518SOL    HW213798   3.461   2.320   5.996
 4519SOL     OW13799   2.889   2.622   6.557
 4519SOL    HW113800   2.881   2.636   6.651
 4519SOL    HW213801   2.865   2.530   6.544
 4520SOL     OW13802   3.388   2.133   5.711
 4520SOL    HW113803   3.326   2.067   5.741
 4520SOL    HW213804   3.423   2.172   5.791
 4521SOL     OW13805   3.146   2.685   5.612
 4521SOL    HW113806   3.189   2.600   5.618
 4521SOL    HW213807   3.180   2.724   5.531
 4522SOL     OW13808   2.930   3.202   6.438
 4522SOL    HW113809   2.937   3.130   6.376
 4522SOL    HW213810   2.987   3.270   6.403
 4523SOL     OW13811   2.175   2.672   6.532
 4523SOL    HW113812   2.268   2.694   6.529
 4523SOL    HW213813   2.173   2.580   6.561
 4524SOL     OW13814   2.194   2.395   6.605
 4524SOL    HW113815   2.157   2.308   6.591
 4524SOL    HW213816   2.270   2.398   6.547
 4525SOL     OW13817   3.009   2.096   0.053
 4525SOL    HW113818   3.059   2.140   0.122
 4525SOL    HW213819   3.043   2.133   6.971
 4526SOL     OW13820   1.870   3.177   5.779
 4526SOL    HW113821   1.783   3.194   5.744
 4526SOL    HW213822   1.865   3.088   5.814
 4527SOL     OW13823   1.950   3.647   6.524
 4527SOL    HW113824   1.921   3.569   6.478
 4527SOL    HW213825   2.041   3.660   6.495
 4528SOL     OW13826   2.352   3.438   6.487
 4528SOL    HW113827   2.421   3.498   6.513
 4528SOL    HW213828   2.396   3.374   6.430
 4529SOL     OW13829   2.849   2.657   6.833
 4529SOL    HW113830   2.932   2.659   6.881
 4529SOL    HW213831   2.789   2.611   6.892
 4530SOL     OW13832   1.917   2.419   6.719
 4530SOL    HW113833   1.965   2.390   6.642
 4530SOL    HW213834   1.985   2.446   6.781
 4531SOL     OW13835   2.680   2.431   5.955
 4531SOL    HW113836   2.685   2.358   5.894
 4531SOL    HW213837   2.605   2.482   5.923
 4532SOL     OW13838   3.510   2.473   6.748
 4532SOL    HW113839   3.498   2.418   6.825
 4532SOL    HW213840   3.601   2.461   6.723
 4533SOL     OW13841   2.527   2.329   6.854
 4533SOL    HW113842   2.497   2.245   6.820
 4533SOL    HW213843   2.543   2.382   6.776
 4534SOL     OW13844   2.804   3.527   6.998
 4534SOL    HW113845   2.773   3.511   6.908
 4534SOL    HW213846   2.781   3.619   0.015
 4535SOL     OW13847   2.319   2.352   5.763
 4535SOL    HW113848   2.379   2.422   5.788
 4535SOL    HW213849   2.234   2.396   5.756
 4536SOL     OW13850   2.017   3.008   0.053
 4536SOL    HW113851   2.072   2.969   0.121
 4536SOL    HW213852   2.029   2.950   6.977
 4537SOL     OW13853   3.148   2.886   6.801
 4537SOL    HW113854   3.179   2.834   6.727
 4537SOL    HW213855   3.114   2.966   6.762
 4538SOL     OW13856   3.180   2.720   5.887
 4538SOL    HW113857   3.108   2.688   5.942
 4538SOL    HW213858   3.151   2.705   5.797
 4539SOL     OW13859   3.610   3.627   6.718
 4539SOL    HW113860   3.686   3.641   6.662
 4539SOL    HW213861   3.596   3.532   6.717
 4540SOL     OW13862   3.109   3.584   6.701
 4540SOL    HW113863   3.190   3.608   6.656
 4540SOL    HW213864   3.119   3.490   6.720
 4541SOL     OW13865   1.944   3.134   6.600
 4541SOL    HW113866   1.926   3.144   6.693
 4541SOL    HW213867   1.878   3.071   6.570
 4542SOL     OW13868   3.584   2.021   6.089
 4542SOL    HW113869   3.655   2.005   6.026
 4542SOL    HW213870   3.568   1.937   6.130
 4543SOL     OW13871   3.255   3.430   6.079
 4543SOL    HW113872   3.313   3.464   6.011
 4543SOL    HW213873   3.205   3.506   6.108
 4544SOL     OW13874   3.138   2.790   6.253
 4544SOL    HW113875   3.211   2.730   6.266
 4544SOL    HW213876   3.174   2.861   6.201
 4545SOL     OW13877   2.529   3.490   5.742
 4545SOL    HW113878   2.543   3.504   5.649
 4545SOL    HW213879   2.475   3.412   5.747
 4546SOL     OW13880   3.704   2.037   6.560
 4546SOL    HW113881   3.734   1.949   6.537
 4546SOL    HW213882   3.616   2.044   6.522
 4547SOL     OW13883   2.117   2.173   6.300
 4547SOL    HW113884   2.030   2.208   6.277
 4547SOL    HW213885   2.117   2.172   6.395
 4548SOL     OW13886   3.070   3.461   5.620
 4548SOL    HW113887   3.059   3.370   5.647
 4548SOL    HW213888   3.003   3.475   5.552
 4549SOL     OW13889   2.653   2.878   6.964
 4549SOL    HW113890   2.695   2.830   6.893
 4549SOL    HW213891   2.725   2.910   0.018
 4550SOL     OW13892   2.778   2.772   5.876
 4550SOL    HW113893   2.839   2.805   5.810
 4550SOL    HW213894   2.829   2.705   5.923
 4551SOL     OW13895   3.350   3.493   5.632
 4551SOL    HW113896   3.256   3.481   5.616
 4551SOL    HW213897   3.388   3.498   5.545
 4552SOL     OW13898   3.473   3.149   6.829
 4552SOL    HW113899   3.558   3.144   6.874
 4552SOL    HW213900   3.409   3.126   6.896
 4553SOL     OW13901   2.925   2.971   6.297
 4553SOL    HW113902   2.853   2.920   6.333
 4553SOL    HW213903   2.991   2.906   6.272
 4554SOL     OW13904   2.886   2.103   6.531
 4554SOL    HW113905   2.887   2.047   6.453
 4554SOL    HW213906   2.882   2.041   6.604
 4555SOL     OW13907   2.468   3.350   6.065
 4555SOL    HW113908   2.519   3.300   6.001
 4555SOL    HW213909   2.391   3.380   6.016
 4556SOL     OW13910   3.567   2.290   6.944
 4556SOL    HW113911   3.595   2.295   0.035
 4556SOL    HW213912   3.562   2.197   6.925
 4557SOL     OW13913   2.125   3.204   5.879
 4557SOL    HW113914   2.033   3.199   5.854
 4557SOL    HW213915   2.124   3.245   5.965
 4558SOL     OW13916   2.542   2.048   0.088
 4558SOL    HW113917   2.629   2.010   0.077
 4558SOL    HW213918   2.559   2.137   0.119
 4559SOL     OW13919   1.944   2.188   5.616
 4559SOL    HW113920   1.857   2.170   5.579
 4559SOL    HW213921   1.974   2.266   5.570
 4560SOL     OW13922   1.922   2.015   5.885
 4560SOL    HW113923   1.910   2.094   5.832
 4560SOL    HW213924   2.007   1.981   5.859
 4561SOL     OW13925   3.040   3.195   5.705
 4561SOL    HW113926   2.950   3.162   5.707
 4561SOL    HW213927   3.067   3.197   5.797
 4562SOL     OW13928   3.352   3.647   6.580
 4562SOL    HW113929   3.369   3.711   6.511
 4562SOL    HW213930   3.438   3.633   6.620
 4563SOL     OW13931   3.359   3.161   0.283
 4563SOL    HW113932   3.274   3.162   0.327
 4563SOL    HW213933   3.374   3.069   0.262
 4564SOL     OW13934   2.253   3.595   0.099
 4564SOL    HW113935   2.166   3.633   0.113
 4564SOL    HW213936   2.246   3.506   0.133
 4565SOL     OW13937   3.572   2.742   6.827
 4565SOL    HW113938   3.536   2.658   6.800
 4565SOL    HW213939   3.534   2.806   6.767
 4566SOL     OW13940   3.078   2.181   6.042
 4566SOL    HW113941   3.139   2.108   6.038
 4566SOL    HW213942   3.106   2.232   6.119
 4567SOL     OW13943   2.447   2.595   6.259
 4567SOL    HW113944   2.488   2.680   6.245
 4567SOL    HW213945   2.383   2.588   6.188
 4568SOL     OW13946   3.641   2.756   0.096
 4568SOL    HW113947   3.628   2.847   0.121
 4568SOL    HW213948   3.616   2.752   0.004
 4569SOL     OW13949   2.723   3.226   5.630
 4569SOL    HW113950   2.688   3.252   5.716
 4569SOL    HW213951   2.740   3.309   5.585
 4570SOL     OW13952   2.527   3.644   6.527
 4570SOL    HW113953   2.510   3.735   6.506
 4570SOL    HW213954   2.622   3.635   6.520
 4571SOL     OW13955   2.733   2.832   6.439
 4571SOL    HW113956   2.781   2.759   6.480
 4571SOL    HW213957   2.694   2.878   6.513
 4572SOL     OW13958   2.938   2.851   5.674
 4572SOL    HW113959   2.918   2.902   5.596
 4572SOL    HW213960   3.012   2.796   5.648
 4573SOL     OW13961   3.710   3.417   6.427
 4573SOL    HW113962   3.629   3.405   6.378
 4573SOL    HW213963   3.698   3.364   6.506
 4574SOL     OW13964   1.954   3.091   6.252
 4574SOL    HW113965   1.961   3.043   6.335
 4574SOL    HW213966   2.021   3.051   6.196
 4575SOL     OW13967   3.669   2.028   6.838
 4575SOL    HW113968   3.642   1.937   6.827
 4575SOL    HW213969   3.683   2.060   6.749
 4576SOL     OW13970   2.287   2.295   6.109
 4576SOL    HW113971   2.321   2.224   6.054
 4576SOL    HW213972   2.239   2.250   6.179
 4577SOL     OW13973   3.542   3.364   6.669
 4577SOL    HW113974   3.466   3.347   6.613
 4577SOL    HW213975   3.542   3.293   6.732
 4578SOL     OW13976   2.178   2.413   6.880
 4578SOL    HW113977   2.246   2.361   6.923
 4578SOL    HW213978   2.193   2.401   6.787
 4579SOL     OW13979   2.694   3.441   6.258
 4579SOL    HW113980   2.671   3.507   6.192
 4579SOL    HW213981   2.619   3.382   6.260
 4580SOL     OW13982   3.297   2.098   6.702
 4580SOL    HW113983   3.332   2.027   6.756
 4580SOL    HW213984   3.247   2.152   6.762
 4581SOL     OW13985   2.875   1.876   6.702
 4581SOL    HW113986   2.828   1.808   6.654
 4581SOL    HW213987   2.962   1.839   6.717
 4582SOL     OW13988   2.638   3.196   5.908
 4582SOL    HW113989   2.612   3.104   5.917
 4582SOL    HW213990   2.719   3.203   5.958
 4583SOL     OW13991   2.472   3.421   6.865
 4583SOL    HW113992   2.473   3.514   6.889
 4583SOL    HW213993   2.558   3.406   6.825
 4584SOL     OW13994   3.221   1.913   5.760
 4584SOL    HW113995   3.256   1.841   5.707
 4584SOL    HW213996   3.132   1.887   5.780
 4585SOL     OW13997   3.158   2.325   6.262
 4585SOL    HW113998   3.106   2.406   6.267
 4585SOL    HW213999   3.152   2.288   6.350
 4586SOL     OW14000   3.446   2.057   6.472
 4586SOL    HW114001   3.390   2.082   6.545
 4586SOL    HW214002   3.446   2.133   6.414
 4587SOL     OW14003   1.904   2.926   5.894
 4587SOL    HW114004   1.998   2.917   5.876
 4587SOL    HW214005   1.876   2.837   5.916
 4588SOL     OW14006   2.752   3.525   5.922
 4588SOL    HW114007   2.676   3.509   5.866
 4588SOL    HW214008   2.725   3.597   5.980
 4589SOL     OW14009   2.081   4.370   0.139
 4589SOL    HW114010   1.990   4.350   0.162
 4589SOL    HW214011   2.088   4.347   0.046
 4590SOL     OW14012   2.087   4.009   0.993
 4590SOL    HW114013   2.115   3.974   1.077
 4590SOL    HW214014   1.998   3.976   0.982
 4591SOL     OW14015   1.860   4.113   0.641
 4591SOL    HW114016   1.779   4.141   0.685
 4591SOL    HW214017   1.834   4.034   0.593
 4592SOL     OW14018   2.430   5.027   1.187
 4592SOL    HW114019   2.344   5.033   1.145
 4592SOL    HW214020   2.448   5.116   1.218
 4593SOL     OW14021   3.435   5.241   0.710
 4593SOL    HW114022   3.393   5.215   0.792
 4593SOL    HW214023   3.365   5.239   0.645
 4594SOL     OW14024   2.995   4.423   0.693
 4594SOL    HW114025   3.045   4.504   0.680
 4594SOL    HW214026   2.960   4.431   0.782
 4595SOL     OW14027   3.654   4.300   0.200
 4595SOL    HW114028   3.589   4.347   0.147
 4595SOL    HW214029   3.602   4.243   0.257
 4596SOL     OW14030   2.585   4.854   1.043
 4596SOL    HW114031   2.526   4.903   1.101
 4596SOL    HW214032   2.638   4.922   1.000
 4597SOL     OW14033   2.739   4.483   1.825
 4597SOL    HW114034   2.726   4.552   1.889
 4597SOL    HW214035   2.760   4.529   1.743
 4598SOL     OW14036   2.545   4.724   0.659
 4598SOL    HW114037   2.593   4.722   0.741
 4598SOL    HW214038   2.469   4.779   0.676
 4599SOL     OW14039   2.576   4.873   1.820
 4599SOL    HW114040   2.624   4.949   1.852
 4599SOL    HW214041   2.496   4.908   1.780
 4600SOL     OW14042   2.193   5.140   1.067
 4600SOL    HW114043   2.119   5.099   1.022
 4600SOL    HW214044   2.237   5.191   0.999
 4601SOL     OW14045   3.320   5.227   1.363
 4601SOL    HW114046   3.375   5.305   1.372
 4601SOL    HW214047   3.251   5.237   1.429
 4602SOL     OW14048   2.314   4.115   1.475
 4602SOL    HW114049   2.389   4.057   1.485
 4602SOL    HW214050   2.238   4.059   1.496
 4603SOL     OW14051   3.467   4.170   0.750
 4603SOL    HW114052   3.398   4.190   0.686
 4603SOL    HW214053   3.465   4.243   0.812
 4604SOL     OW14054   2.081   5.446   0.472
 4604SOL    HW114055   2.104   5.521   0.527
 4604SOL    HW214056   2.165   5.418   0.433
 4605SOL     OW14057   3.000   5.067   1.695
 4605SOL    HW114058   3.041   5.059   1.781
 4605SOL    HW214059   2.948   4.987   1.687
 4606SOL     OW14060   2.085   5.169   0.539
 4606SOL    HW114061   2.063   5.262   0.550
 4606SOL    HW214062   2.030   5.124   0.604
 4607SOL     OW14063   2.126   4.816   0.886
 4607SOL    HW114064   2.126   4.728   0.925
 4607SOL    HW214065   2.070   4.868   0.944
 4608SOL     OW14066   2.460   5.519   1.424
 4608SOL    HW114067   2.380   5.500   1.474
 4608SOL    HW214068   2.486   5.606   1.454
 4609SOL     OW14069   2.444   4.688   0.149
 4609SOL    HW114070   2.502   4.710   0.076
 4609SOL    HW214071   2.481   4.736   0.224
 4610SOL     OW14072   3.457   3.852   1.463
 4610SOL    HW114073   3.484   3.931   1.416
 4610SOL    HW214074   3.436   3.883   1.552
 4611SOL     OW14075   1.983   4.374   0.558
 4611SOL    HW114076   1.952   4.287   0.584
 4611SOL    HW214077   1.975   4.427   0.638
 4612SOL     OW14078   3.698   5.486   0.345
 4612SOL    HW114079   3.770   5.460   0.404
 4612SOL    HW214080   3.706   5.581   0.338
 4613SOL     OW14081   3.553   4.638   0.649
 4613SOL    HW114082   3.632   4.591   0.622
 4613SOL    HW214083   3.531   4.693   0.575
 4614SOL     OW14084   3.515   4.818   0.444
 4614SOL    HW114085   3.580   4.839   0.376
 4614SOL    HW214086   3.527   4.886   0.510
 4615SOL     OW14087   1.987   4.469   1.584
 4615SOL    HW114088   2.077   4.501   1.586
 4615SOL    HW214089   1.934   4.548   1.585
 4616SOL     OW14090   2.480   5.112   0.741
 4616SOL    HW114091   2.433   5.029   0.750
 4616SOL    HW214092   2.469   5.137   0.649
 4617SOL     OW14093   3.146   4.958   1.420
 4617SOL    HW114094   3.176   4.890   1.360
 4617SOL    HW214095   3.205   4.953   1.494
 4618SOL     OW14096   2.683   3.735   0.522
 4618SOL    HW114097   2.724   3.818   0.497
 4618SOL    HW214098   2.590   3.754   0.525
 4619SOL     OW14099   2.050   4.684   1.282
 4619SOL    HW114100   2.137   4.646   1.266
 4619SOL    HW214101   1.993   4.638   1.220
 4620SOL     OW14102   3.344   4.755   0.211
 4620SOL    HW114103   3.282   4.691   0.246
 4620SOL    HW214104   3.430   4.726   0.243
 4621SOL     OW14105   3.044   5.539   1.627
 4621SOL    HW114106   3.050   5.600   1.553
 4621SOL    HW214107   3.063   5.453   1.588
 4622SOL     OW14108   2.207   3.971   1.837
 4622SOL    HW114109   2.246   4.057   1.857
 4622SOL    HW214110   2.113   3.984   1.853
 4623SOL     OW14111   3.329   5.143   0.944
 4623SOL    HW114112   3.264   5.159   1.012
 4623SOL    HW214113   3.317   5.052   0.920
 4624SOL     OW14114   3.505   5.486   0.584
 4624SOL    HW114115   3.487   5.454   0.496
 4624SOL    HW214116   3.494   5.410   0.641
 4625SOL     OW14117   2.463   4.436   0.266
 4625SOL    HW114118   2.466   4.524   0.228
 4625SOL    HW214119   2.401   4.443   0.338
 4626SOL     OW14120   3.141   4.091   0.933
 4626SOL    HW114121   3.052   4.057   0.943
 4626SOL    HW214122   3.194   4.038   0.992
 4627SOL     OW14123   3.434   5.402   0.319
 4627SOL    HW114124   3.525   5.430   0.314
 4627SOL    HW214125   3.406   5.393   0.228
 4628SOL     OW14126   2.653   4.341   1.445
 4628SOL    HW114127   2.627   4.314   1.534
 4628SOL    HW214128   2.620   4.271   1.389
 4629SOL     OW14129   3.253   4.198   1.677
 4629SOL    HW114130   3.258   4.243   1.762
 4629SOL    HW214131   3.310   4.122   1.687
 4630SOL     OW14132   2.811   4.608   1.587
 4630SOL    HW114133   2.866   4.541   1.547
 4630SOL    HW214134   2.762   4.646   1.513
 4631SOL     OW14135   2.857   4.131   1.232
 4631SOL    HW114136   2.767   4.148   1.260
 4631SOL    HW214137   2.848   4.090   1.146
 4632SOL     OW14138   2.918   4.425   0.426
 4632SOL    HW114139   2.938   4.421   0.520
 4632SOL    HW214140   2.834   4.380   0.417
 4633SOL     OW14141   1.954   4.542   0.775
 4633SOL    HW114142   2.033   4.538   0.828
 4633SOL    HW214143   1.906   4.618   0.810
 4634SOL     OW14144   1.986   5.598   1.585
 4634SOL    HW114145   1.991   5.575   1.677
 4634SOL    HW214146   1.903   5.561   1.555
 4635SOL     OW14147   2.753   4.068   0.207
 4635SOL    HW114148   2.803   4.123   0.147
 4635SOL    HW214149   2.776   3.979   0.182
 4636SOL     OW14150   3.563   4.293   1.831
 4636SOL    HW114151   3.530   4.368   1.781
 4636SOL    HW214152   3.592   4.231   1.765
 4637SOL     OW14153   3.251   4.866   0.556
 4637SOL    HW114154   3.329   4.854   0.503
 4637SOL    HW214155   3.197   4.927   0.505
 4638SOL     OW14156   2.413   3.900   0.899
 4638SOL    HW114157   2.416   3.929   0.990
 4638SOL    HW214158   2.414   3.980   0.847
 4639SOL     OW14159   2.856   5.161   0.474
 4639SOL    HW114160   2.828   5.238   0.424
 4639SOL    HW214161   2.831   5.180   0.564
 4640SOL     OW14162   2.216   5.539   0.871
 4640SOL    HW114163   2.260   5.454   0.876
 4640SOL    HW214164   2.285   5.602   0.891
 4641SOL     OW14165   3.665   4.770   0.876
 4641SOL    HW114166   3.614   4.751   0.797
 4641SOL    HW214167   3.600   4.779   0.945
 4642SOL     OW14168   3.087   5.265   1.514
 4642SOL    HW114169   3.076   5.193   1.576
 4642SOL    HW214170   3.020   5.248   1.447
 4643SOL     OW14171   2.170   4.680   0.228
 4643SOL    HW114172   2.260   4.691   0.196
 4643SOL    HW214173   2.148   4.590   0.208
 4644SOL     OW14174   3.344   4.471   0.720
 4644SOL    HW114175   3.342   4.435   0.808
 4644SOL    HW214176   3.422   4.527   0.718
 4645SOL     OW14177   2.334   4.994   1.738
 4645SOL    HW114178   2.307   4.998   1.646
 4645SOL    HW214179   2.251   4.990   1.787
 4646SOL     OW14180   2.984   5.494   0.241
 4646SOL    HW114181   2.916   5.448   0.291
 4646SOL    HW214182   3.017   5.429   0.179
 4647SOL     OW14183   2.065   3.991   1.503
 4647SOL    HW114184   1.985   4.044   1.511
 4647SOL    HW214185   2.041   3.906   1.540
 4648SOL     OW14186   3.514   5.158   0.110
 4648SOL    HW114187   3.458   5.225   0.073
 4648SOL    HW214188   3.458   5.112   0.173
 4649SOL     OW14189   2.347   5.419   0.386
 4649SOL    HW114190   2.377   5.502   0.424
 4649SOL    HW214191   2.399   5.409   0.306
 4650SOL     OW14192   2.119   5.514   1.227
 4650SOL    HW114193   2.168   5.443   1.268
 4650SOL    HW214194   2.110   5.487   1.136
 4651SOL     OW14195   2.801   5.425   0.896
 4651SOL    HW114196   2.879   5.375   0.921
 4651SOL    HW214197   2.761   5.374   0.827
 4652SOL     OW14198   2.263   4.416   0.465
 4652SOL    HW114199   2.278   4.323   0.484
 4652SOL    HW214200   2.170   4.430   0.484
 4653SOL     OW14201   3.387   3.949   1.722
 4653SOL    HW114202   3.398   3.968   1.815
 4653SOL    HW214203   3.319   3.882   1.720
 4654SOL     OW14204   2.624   4.002   1.756
 4654SOL    HW114205   2.706   3.952   1.753
 4654SOL    HW214206   2.579   3.969   1.834
 4655SOL     OW14207   2.737   5.248   1.196
 4655SOL    HW114208   2.719   5.208   1.111
 4655SOL    HW214209   2.806   5.194   1.234
 4656SOL     OW14210   3.199   4.314   1.433
 4656SOL    HW114211   3.230   4.283   1.518
 4656SOL    HW214212   3.236   4.401   1.423
 4657SOL     OW14213   2.680   5.112   0.952
 4657SOL    HW114214   2.765   5.100   0.908
 4657SOL    HW214215   2.617   5.118   0.880
 4658SOL     OW14216   2.791   4.235   0.902
 4658SOL    HW114217   2.765   4.226   0.810
 4658SOL    HW214218   2.820   4.147   0.926
 4659SOL     OW14219   2.416   3.796   0.501
 4659SOL    HW114220   2.336   3.795   0.554
 4659SOL    HW214221   2.403   3.868   0.440
 4660SOL     OW14222   3.278   4.941   0.005
 4660SOL    HW114223   3.304   4.865   0.058
 4660SOL    HW214224   3.200   4.975   0.050
 4661SOL     OW14225   2.809   3.974   0.462
 4661SOL    HW114226   2.781   4.014   0.380
 4661SOL    HW214227   2.903   3.989   0.466
 4662SOL     OW14228   2.941   4.411   1.453
 4662SOL    HW114229   2.876   4.341   1.457
 4662SOL    HW214230   3.025   4.365   1.448
 4663SOL     OW14231   3.079   5.293   0.796
 4663SOL    HW114232   3.093   5.358   0.728
 4663SOL    HW214233   3.150   5.308   0.859
 4664SOL     OW14234   2.333   4.881   0.723
 4664SOL    HW114235   2.264   4.859   0.786
 4664SOL    HW214236   2.291   4.873   0.638
 4665SOL     OW14237   3.117   5.510   0.614
 4665SOL    HW114238   3.170   5.577   0.570
 4665SOL    HW214239   3.046   5.558   0.656
 4666SOL     OW14240   2.932   4.326   0.026
 4666SOL    HW114241   2.839   4.331   0.050
 4666SOL    HW214242   2.976   4.300   0.107
 4667SOL     OW14243   1.948   4.278   1.393
 4667SOL    HW114244   2.040   4.278   1.366
 4667SOL    HW214245   1.942   4.347   1.458
 4668SOL     OW14246   2.419   3.951   1.172
 4668SOL    HW114247   2.461   3.879   1.219
 4668SOL    HW214248   2.327   3.948   1.199
 4669SOL     OW14249   2.728   4.179   0.642
 4669SOL    HW114250   2.689   4.236   0.574
 4669SOL    HW214251   2.752   4.099   0.595
 4670SOL     OW14252   2.883   3.774   0.742
 4670SOL    HW114253   2.819   3.769   0.671
 4670SOL    HW214254   2.859   3.702   0.800
 4671SOL     OW14255   3.302   4.882   0.860
 4671SOL    HW114256   3.234   4.815   0.864
 4671SOL    HW214257   3.324   4.889   0.767
 4672SOL     OW14258   3.329   4.335   0.965
 4672SOL    HW114259   3.270   4.261   0.971
 4672SOL    HW214260   3.385   4.328   1.043
 4673SOL     OW14261   3.686   4.529   0.396
 4673SOL    HW114262   3.748   4.468   0.437
 4673SOL    HW214263   3.683   4.501   0.304
 4674SOL     OW14264   2.329   5.157   0.152
 4674SOL    HW114265   2.272   5.114   0.215
 4674SOL    HW214266   2.307   5.118   0.068
 4675SOL     OW14267   3.540   4.989   0.649
 4675SOL    HW114268   3.634   4.988   0.663
 4675SOL    HW214269   3.514   5.080   0.666
 4676SOL     OW14270   3.251   4.276   0.062
 4676SOL    HW114271   3.193   4.273   0.138
 4676SOL    HW214272   3.306   4.199   0.070
 4677SOL     OW14273   2.366   3.984   0.310
 4677SOL    HW114274   2.398   3.931   0.236
 4677SOL    HW214275   2.343   4.068   0.270
 4678SOL     OW14276   3.609   4.967   1.558
 4678SOL    HW114277   3.696   4.929   1.550
 4678SOL    HW214278   3.624   5.056   1.589
 4679SOL     OW14279   2.915   5.080   1.334
 4679SOL    HW114280   2.839   5.046   1.383
 4679SOL    HW214281   2.990   5.036   1.375
 4680SOL     OW14282   3.471   5.353   1.660
 4680SOL    HW114283   3.463   5.387   1.571
 4680SOL    HW214284   3.552   5.302   1.658
 4681SOL     OW14285   3.002   4.943   1.103
 4681SOL    HW114286   2.939   4.976   1.167
 4681SOL    HW214287   2.969   4.973   1.018
 4682SOL     OW14288   3.484   4.818   1.076
 4682SOL    HW114289   3.476   4.882   1.147
 4682SOL    HW214290   3.410   4.839   1.018
 4683SOL     OW14291   2.780   3.815   1.390
 4683SOL    HW114292   2.803   3.797   1.298
 4683SOL    HW214293   2.860   3.855   1.426
 4684SOL     OW14294   2.846   4.839   1.723
 4684SOL    HW114295   2.755   4.856   1.748
 4684SOL    HW214296   2.842   4.760   1.669
 4685SOL     OW14297   2.575   4.786   0.376
 4685SOL    HW114298   2.561   4.766   0.469
 4685SOL    HW214299   2.651   4.733   0.352
 4686SOL     OW14300   2.286   4.545   1.250
 4686SOL    HW114301   2.354   4.555   1.317
 4686SOL    HW214302   2.252   4.457   1.264
 4687SOL     OW14303   3.125   4.097   1.283
 4687SOL    HW114304   3.157   4.175   1.327
 4687SOL    HW214305   3.034   4.117   1.261
 4688SOL     OW14306   1.938   5.298   1.359
 4688SOL    HW114307   1.910   5.368   1.301
 4688SOL    HW214308   2.033   5.296   1.350
 4689SOL     OW14309   2.224   4.843   0.478
 4689SOL    HW114310   2.198   4.915   0.421
 4689SOL    HW214311   2.214   4.765   0.424
 4690SOL     OW14312   2.408   4.254   0.858
 4690SOL    HW114313   2.423   4.312   0.783
 4690SOL    HW214314   2.474   4.280   0.922
 4691SOL     OW14315   3.109   5.067   0.405
 4691SOL    HW114316   3.159   5.141   0.439
 4691SOL    HW214317   3.019   5.083   0.435
 4692SOL     OW14318   3.154   5.186   1.147
 4692SOL    HW114319   3.208   5.190   1.227
 4692SOL    HW214320   3.101   5.107   1.159
 4693SOL     OW14321   3.452   4.349   0.482
 4693SOL    HW114322   3.395   4.392   0.547
 4693SOL    HW214323   3.505   4.420   0.447
 4694SOL     OW14324   2.207   5.255   1.309
 4694SOL    HW114325   2.197   5.209   1.225
 4694SOL    HW214326   2.302   5.267   1.318
 4695SOL     OW14327   2.281   4.470   1.604
 4695SOL    HW114328   2.344   4.513   1.546
 4695SOL    HW214329   2.319   4.384   1.622
 4696SOL     OW14330   3.473   4.506   1.688
 4696SOL    HW114331   3.387   4.547   1.682
 4696SOL    HW214332   3.525   4.547   1.619
 4697SOL     OW14333   2.858   3.859   1.756
 4697SOL    HW114334   2.916   3.932   1.734
 4697SOL    HW214335   2.907   3.781   1.729
 4698SOL     OW14336   2.358   3.758   1.753
 4698SOL    HW114337   2.310   3.707   1.688
 4698SOL    HW214338   2.303   3.835   1.768
 4699SOL     OW14339   2.453   4.603   1.028
 4699SOL    HW114340   2.496   4.688   1.032
 4699SOL    HW214341   2.398   4.600   1.107
 4700SOL     OW14342   3.197   4.580   1.016
 4700SOL    HW114343   3.109   4.555   0.989
 4700SOL    HW214344   3.249   4.500   1.006
 4701SOL     OW14345   3.055   4.250   0.264
 4701SOL    HW114346   3.066   4.173   0.320
 4701SOL    HW214347   3.018   4.316   0.323
 4702SOL     OW14348   2.157   3.920   1.246
 4702SOL    HW114349   2.121   3.951   1.329
 4702SOL    HW214350   2.140   3.826   1.246
 4703SOL     OW14351   1.909   5.036   1.273
 4703SOL    HW114352   1.940   4.979   1.343
 4703SOL    HW214353   1.913   5.124   1.309
 4704SOL     OW14354   2.580   4.352   1.050
 4704SOL    HW114355   2.659   4.340   0.999
 4704SOL    HW214356   2.554   4.443   1.034
 4705SOL     OW14357   3.604   4.683   1.860
 4705SOL    HW114358   3.560   4.616   1.808
 4705SOL    HW214359   3.542   4.702   1.931
 4706SOL     OW14360   2.171   3.790   0.627
 4706SOL    HW114361   2.147   3.880   0.650
 4706SOL    HW214362   2.180   3.745   0.712
 4707SOL     OW14363   3.488   4.100   0.371
 4707SOL    HW114364   3.514   4.038   0.439
 4707SOL    HW214365   3.469   4.181   0.419
 4708SOL     OW14366   2.928   4.467   0.963
 4708SOL    HW114367   2.898   4.498   1.049
 4708SOL    HW214368   2.883   4.383   0.951
 4709SOL     OW14369   2.843   5.290   1.723
 4709SOL    HW114370   2.826   5.334   1.640
 4709SOL    HW214371   2.886   5.208   1.700
 4710SOL     OW14372   3.711   5.224   1.604
 4710SOL    HW114373   3.734   5.252   1.515
 4710SOL    HW214374   3.791   5.237   1.655
 4711SOL     OW14375   2.213   4.641   1.810
 4711SOL    HW114376   2.293   4.660   1.859
 4711SOL    HW214377   2.240   4.578   1.743
 4712SOL     OW14378   3.338   4.025   0.152
 4712SOL    HW114379   3.308   3.935   0.166
 4712SOL    HW214380   3.396   4.043   0.226
 4713SOL     OW14381   3.159   4.545   0.041
 4713SOL    HW114382   3.200   4.460   0.024
 4713SOL    HW214383   3.179   4.597   6.964
 4714SOL     OW14384   2.928   5.062   0.856
 4714SOL    HW114385   2.938   4.988   0.796
 4714SOL    HW214386   2.987   5.129   0.821
 4715SOL     OW14387   2.173   4.535   0.946
 4715SOL    HW114388   2.266   4.557   0.945
 4715SOL    HW214389   2.170   4.445   0.977
 4716SOL     OW14390   2.188   4.256   1.013
 4716SOL    HW114391   2.152   4.168   1.001
 4716SOL    HW214392   2.265   4.259   0.956
 4717SOL     OW14393   2.996   4.095   1.688
 4717SOL    HW114394   2.948   4.150   1.750
 4717SOL    HW214395   3.083   4.136   1.682
 4718SOL     OW14396   3.022   3.920   1.473
 4718SOL    HW114397   3.010   3.983   1.544
 4718SOL    HW214398   3.065   3.970   1.404
 4719SOL     OW14399   1.952   5.505   0.942
 4719SOL    HW114400   1.921   5.428   0.895
 4719SOL    HW214401   2.041   5.519   0.910
 4720SOL     OW14402   2.352   5.299   0.903
 4720SOL    HW114403   2.421   5.360   0.927
 4720SOL    HW214404   2.395   5.235   0.846
 4721SOL     OW14405   2.832   4.512   1.219
 4721SOL    HW114406   2.892   4.494   1.291
 4721SOL    HW214407   2.749   4.473   1.245
 4722SOL     OW14408   1.899   4.275   1.117
 4722SOL    HW114409   1.981   4.270   1.067
 4722SOL    HW214410   1.928   4.275   1.209
 4723SOL     OW14411   2.053   4.247   1.732
 4723SOL    HW114412   2.108   4.203   1.667
 4723SOL    HW214413   2.018   4.324   1.687
 4724SOL     OW14414   3.244   4.655   1.656
 4724SOL    HW114415   3.265   4.749   1.652
 4724SOL    HW214416   3.240   4.628   1.564
 4725SOL     OW14417   2.681   4.291   0.378
 4725SOL    HW114418   2.688   4.219   0.315
 4725SOL    HW214419   2.608   4.344   0.347
 4726SOL     OW14420   3.502   4.325   1.178
 4726SOL    HW114421   3.492   4.266   1.253
 4726SOL    HW214422   3.590   4.307   1.145
 4727SOL     OW14423   2.098   5.272   1.722
 4727SOL    HW114424   2.077   5.335   1.791
 4727SOL    HW214425   2.107   5.188   1.768
 4728SOL     OW14426   2.578   4.168   1.250
 4728SOL    HW114427   2.519   4.096   1.226
 4728SOL    HW214428   2.568   4.232   1.180
 4729SOL     OW14429   2.780   5.403   1.474
 4729SOL    HW114430   2.758   5.362   1.390
 4729SOL    HW214431   2.776   5.497   1.456
 4730SOL     OW14432   2.314   4.221   0.183
 4730SOL    HW114433   2.374   4.290   0.211
 4730SOL    HW214434   2.228   4.262   0.184
 4731SOL     OW14435   2.001   4.868   1.475
 4731SOL    HW114436   2.004   4.822   1.559
 4731SOL    HW214437   2.019   4.800   1.410
 4732SOL     OW14438   3.181   4.766   1.216
 4732SOL    HW114439   3.198   4.702   1.147
 4732SOL    HW214440   3.117   4.826   1.178
 4733SOL     OW14441   3.163   4.573   0.314
 4733SOL    HW114442   3.086   4.533   0.356
 4733SOL    HW214443   3.154   4.549   0.221
 4734SOL     OW14444   3.644   5.459   1.160
 4734SOL    HW114445   3.703   5.485   1.089
 4734SOL    HW214446   3.615   5.371   1.136
 4735SOL     OW14447   3.101   5.457   1.102
 4735SOL    HW114448   3.184   5.482   1.062
 4735SOL    HW214449   3.112   5.364   1.124
 4736SOL     OW14450   1.950   4.991   1.008
 4736SOL    HW114451   1.931   5.004   1.101
 4736SOL    HW214452   1.880   4.933   0.977
 4737SOL     OW14453   2.542   5.396   1.741
 4737SOL    HW114454   2.483   5.471   1.731
 4737SOL    HW214455   2.613   5.413   1.679
 4738SOL     OW14456   2.799   3.802   0.109
 4738SOL    HW114457   2.869   3.854   0.069
 4738SOL    HW214458   2.845   3.743   0.169
 4739SOL     OW14459   3.592   3.892   0.535
 4739SOL    HW114460   3.657   3.875   0.466
 4739SOL    HW214461   3.563   3.805   0.563
 4740SOL     OW14462   3.250   5.286   0.495
 4740SOL    HW114463   3.310   5.318   0.429
 4740SOL    HW214464   3.201   5.363   0.523
 4741SOL     OW14465   2.003   5.521   1.843
 4741SOL    HW114466   1.953   5.453   1.889
 4741SOL    HW214467   2.050   5.567   1.912
 4742SOL     OW14468   3.142   4.650   0.671
 4742SOL    HW114469   3.214   4.588   0.683
 4742SOL    HW214470   3.180   4.721   0.620
 4743SOL     OW14471   2.663   5.001   1.421
 4743SOL    HW114472   2.635   5.043   1.502
 4743SOL    HW214473   2.591   5.018   1.360
 4744SOL     OW14474   2.536   5.333   0.192
 4744SOL    HW114475   2.537   5.378   0.107
 4744SOL    HW214476   2.478   5.258   0.179
 4745SOL     OW14477   3.480   5.452   1.392
 4745SOL    HW114478   3.535   5.456   1.314
 4745SOL    HW214479   3.465   5.544   1.416
 4746SOL     OW14480   3.705   3.893   0.965
 4746SOL    HW114481   3.734   3.805   0.942
 4746SOL    HW214482   3.619   3.901   0.925
 4747SOL     OW14483   2.117   4.040   0.715
 4747SOL    HW114484   2.031   4.075   0.694
 4747SOL    HW214485   2.118   4.035   0.811
 4748SOL     OW14486   3.080   5.321   0.043
 4748SOL    HW114487   3.072   5.229   0.068
 4748SOL    HW214488   2.996   5.342   0.001
 4749SOL     OW14489   2.686   4.731   1.376
 4749SOL    HW114490   2.726   4.723   1.289
 4749SOL    HW214491   2.681   4.825   1.391
 4750SOL     OW14492   2.785   4.640   0.294
 4750SOL    HW114493   2.837   4.666   0.218
 4750SOL    HW214494   2.837   4.571   0.336
 4751SOL     OW14495   3.347   5.378   0.042
 4751SOL    HW114496   3.254   5.356   0.041
 4751SOL    HW214497   3.369   5.397   6.951
 4752SOL     OW14498   2.228   5.030   1.493
 4752SOL    HW114499   2.216   5.106   1.436
 4752SOL    HW214500   2.151   4.975   1.478
 4753SOL     OW14501   3.468   5.009   1.279
 4753SOL    HW114502   3.527   4.991   1.353
 4753SOL    HW214503   3.408   5.076   1.312
 4754SOL     OW14504   2.929   4.823   0.721
 4754SOL    HW114505   2.856   4.763   0.732
 4754SOL    HW214506   3.003   4.768   0.696
 4755SOL     OW14507   2.887   3.966   0.965
 4755SOL    HW114508   2.884   3.920   0.881
 4755SOL    HW214509   2.881   3.897   1.031
 4756SOL     OW14510   2.480   5.199   0.487
 4756SOL    HW114511   2.513   5.155   0.409
 4756SOL    HW214512   2.418   5.264   0.454
 4757SOL     OW14513   3.592   4.115   1.381
 4757SOL    HW114514   3.664   4.178   1.380
 4757SOL    HW214515   3.620   4.044   1.322
 4758SOL     OW14516   2.134   5.047   0.307
 4758SOL    HW114517   2.056   5.070   0.257
 4758SOL    HW214518   2.122   5.092   0.391
 4759SOL     OW14519   1.977   4.761   1.728
 4759SOL    HW114520   1.901   4.732   1.777
 4759SOL    HW214521   2.051   4.716   1.768
 4760SOL     OW14522   2.539   3.918   1.499
 4760SOL    HW114523   2.623   3.896   1.459
 4760SOL    HW214524   2.562   3.951   1.586
 4761SOL     OW14525   1.971   4.036   0.011
 4761SOL    HW114526   1.912   3.984   6.957
 4761SOL    HW214527   1.983   4.117   6.963
 4762SOL     OW14528   3.286   4.581   1.395
 4762SOL    HW114529   3.236   4.641   1.341
 4762SOL    HW214530   3.374   4.583   1.359
 4763SOL     OW14531   1.914   3.895   0.333
 4763SOL    HW114532   1.895   3.974   0.283
 4763SOL    HW214533   2.003   3.871   0.307
 4764SOL     OW14534   3.048   5.063   0.126
 4764SOL    HW114535   2.955   5.047   0.111
 4764SOL    HW214536   3.060   5.052   0.220
 4765SOL     OW14537   2.483   4.555   1.436
 4765SOL    HW114538   2.541   4.630   1.421
 4765SOL    HW214539   2.543   4.480   1.442
 4766SOL     OW14540   3.346   5.513   0.984
 4766SOL    HW114541   3.371   5.582   0.923
 4766SOL    HW214542   3.428   5.479   1.017
 4767SOL     OW14543   2.580   4.281   1.698
 4767SOL    HW114544   2.625   4.340   1.759
 4767SOL    HW214545   2.597   4.194   1.733
 4768SOL     OW14546   3.335   4.917   1.627
 4768SOL    HW114547   3.324   4.933   1.721
 4768SOL    HW214548   3.427   4.937   1.611
 4769SOL     OW14549   2.230   5.466   1.567
 4769SOL    HW114550   2.148   5.512   1.552
 4769SOL    HW214551   2.204   5.383   1.607
 4770SOL     OW14552   3.525   4.603   1.255
 4770SOL    HW114553   3.522   4.518   1.211
 4770SOL    HW214554   3.515   4.666   1.184
 4771SOL     OW14555   3.081   4.043   0.454
 4771SOL    HW114556   3.162   3.997   0.431
 4771SOL    HW214557   3.103   4.092   0.533
 4772SOL     OW14558   2.451   4.457   0.670
 4772SOL    HW114559   2.487   4.545   0.660
 4772SOL    HW214560   2.385   4.450   0.601
 4773SOL     OW14561   3.617   4.087   1.654
 4773SOL    HW114562   3.605   4.104   1.561
 4773SOL    HW214563   3.543   4.031   1.679
 4774SOL     OW14564   3.612   4.656   1.510
 4774SOL    HW114565   3.600   4.750   1.523
 4774SOL    HW214566   3.593   4.642   1.417
 4775SOL     OW14567   2.767   5.105   0.054
 4775SOL    HW114568   2.710   5.085   0.128
 4775SOL    HW214569   2.766   5.200   0.048
 4776SOL     OW14570   2.525   5.506   0.935
 4776SOL    HW114571   2.508   5.599   0.918
 4776SOL    HW214572   2.620   5.498   0.931
 4777SOL     OW14573   2.943   4.709   0.076
 4777SOL    HW114574   2.961   4.762   6.998
 4777SOL    HW214575   3.014   4.645   0.079
 4778SOL     OW14576   3.708   5.277   0.839
 4778SOL    HW114577   3.627   5.265   0.790
 4778SOL    HW214578   3.706   5.210   0.907
 4779SOL     OW14579   2.087   5.021   1.851
 4779SOL    HW114580   2.030   4.952   1.816
 4779SOL    HW214581   2.058   5.033   1.941
 4780SOL     OW14582   1.947   4.957   0.666
 4780SOL    HW114583   1.977   4.908   0.742
 4780SOL    HW214584   1.984   4.909   0.591
 4781SOL     OW14585   2.547   5.134   1.630
 4781SOL    HW114586   2.470   5.091   1.666
 4781SOL    HW214587   2.546   5.221   1.668
 4782SOL     OW14588   3.673   3.904   1.235
 4782SOL    HW114589   3.677   3.809   1.248
 4782SOL    HW214590   3.685   3.916   1.141
 4783SOL     OW14591   2.290   4.157   0.526
 4783SOL    HW114592   2.317   4.084   0.470
 4783SOL    HW214593   2.240   4.116   0.597
 4784SOL     OW14594   3.557   5.210   1.092
 4784SOL    HW114595   3.479   5.190   1.040
 4784SOL    HW214596   3.561   5.140   1.157
 4785SOL     OW14597   2.200   4.286   1.293
 4785SOL    HW114598   2.252   4.227   1.347
 4785SOL    HW214599   2.216   4.256   1.203
 4786SOL     OW14600   2.694   5.303   0.677
 4786SOL    HW114601   2.672   5.367   0.610
 4786SOL    HW214602   2.620   5.242   0.678
 4787SOL     OW14603   3.290   3.955   1.116
 4787SOL    HW114604   3.306   3.869   1.154
 4787SOL    HW214605   3.241   4.003   1.182
 4788SOL     OW14606   2.871   3.739   1.133
 4788SOL    HW114607   2.817   3.673   1.088
 4788SOL    HW214608   2.958   3.701   1.136
 4789SOL     OW14609   2.648   5.044   0.303
 4789SOL    HW114610   2.615   4.957   0.324
 4789SOL    HW214611   2.719   5.058   0.366
 4790SOL     OW14612   2.481   5.283   1.287
 4790SOL    HW114613   2.481   5.365   1.335
 4790SOL    HW214614   2.570   5.276   1.252
 4791SOL     OW14615   3.214   3.780   0.182
 4791SOL    HW114616   3.257   3.711   0.132
 4791SOL    HW214617   3.133   3.741   0.213
 4792SOL     OW14618   3.151   4.185   0.675
 4792SOL    HW114619   3.102   4.267   0.680
 4792SOL    HW214620   3.150   4.151   0.764
 4793SOL     OW14621   3.446   3.918   0.883
 4793SOL    HW114622   3.392   3.945   0.958
 4793SOL    HW214623   3.448   3.995   0.827
 4794SOL     OW14624   1.942   4.775   0.370
 4794SOL    HW114625   2.020   4.752   0.320
 4794SOL    HW214626   1.893   4.693   0.377
 4795SOL     OW14627   2.756   5.385   0.352
 4795SOL    HW114628   2.681   5.362   0.297
 4795SOL    HW214629   2.725   5.459   0.405
 4796SOL     OW14630   2.082   4.346   1.994
 4796SOL    HW114631   1.993   4.342   2.029
 4796SOL    HW214632   2.072   4.325   1.901
 4797SOL     OW14633   2.098   4.012   2.848
 4797SOL    HW114634   2.121   3.975   2.933
 4797SOL    HW214635   2.007   3.986   2.834
 4798SOL     OW14636   1.859   4.107   2.499
 4798SOL    HW114637   1.780   4.136   2.545
 4798SOL    HW214638   1.830   4.030   2.449
 4799SOL     OW14639   2.430   5.023   3.047
 4799SOL    HW114640   2.345   5.030   3.004
 4799SOL    HW214641   2.448   5.111   3.079
 4800SOL     OW14642   3.437   5.240   2.571
 4800SOL    HW114643   3.393   5.215   2.652
 4800SOL    HW214644   3.367   5.242   2.506
 4801SOL     OW14645   2.992   4.420   2.563
 4801SOL    HW114646   3.041   4.501   2.547
 4801SOL    HW214647   2.937   4.440   2.639
 4802SOL     OW14648   3.642   4.320   2.087
 4802SOL    HW114649   3.615   4.316   1.995
 4802SOL    HW214650   3.602   4.243   2.127
 4803SOL     OW14651   2.614   4.861   2.921
 4803SOL    HW114652   2.543   4.897   2.973
 4803SOL    HW214653   2.651   4.937   2.876
 4804SOL     OW14654   2.547   4.725   2.503
 4804SOL    HW114655   2.612   4.717   2.573
 4804SOL    HW214656   2.477   4.778   2.541
 4805SOL     OW14657   2.599   4.874   3.648
 4805SOL    HW114658   2.644   4.948   3.687
 4805SOL    HW214659   2.507   4.902   3.642
 4806SOL     OW14660   2.192   5.140   2.929
 4806SOL    HW114661   2.118   5.100   2.883
 4806SOL    HW214662   2.237   5.191   2.861
 4807SOL     OW14663   3.319   5.229   3.227
 4807SOL    HW114664   3.374   5.306   3.235
 4807SOL    HW214665   3.250   5.241   3.292
 4808SOL     OW14666   3.477   4.176   2.613
 4808SOL    HW114667   3.414   4.205   2.546
 4808SOL    HW214668   3.462   4.237   2.686
 4809SOL     OW14669   2.081   5.442   2.330
 4809SOL    HW114670   2.103   5.516   2.386
 4809SOL    HW214671   2.156   5.433   2.271
 4810SOL     OW14672   2.998   5.073   3.555
 4810SOL    HW114673   3.028   5.058   3.645
 4810SOL    HW214674   2.971   4.987   3.524
 4811SOL     OW14675   2.096   5.170   2.398
 4811SOL    HW114676   2.075   5.263   2.400
 4811SOL    HW214677   2.039   5.131   2.464
 4812SOL     OW14678   2.124   4.826   2.745
 4812SOL    HW114679   2.128   4.735   2.776
 4812SOL    HW214680   2.069   4.871   2.808
 4813SOL     OW14681   2.460   5.519   3.286
 4813SOL    HW114682   2.381   5.500   3.336
 4813SOL    HW214683   2.486   5.607   3.315
 4814SOL     OW14684   2.438   4.709   2.003
 4814SOL    HW114685   2.488   4.753   1.934
 4814SOL    HW214686   2.478   4.741   2.085
 4815SOL     OW14687   1.982   4.379   2.424
 4815SOL    HW114688   1.948   4.292   2.446
 4815SOL    HW214689   1.971   4.430   2.504
 4816SOL     OW14690   3.706   5.476   2.191
 4816SOL    HW114691   3.775   5.452   2.252
 4816SOL    HW214692   3.722   5.568   2.171
 4817SOL     OW14693   1.903   5.313   1.981
 4817SOL    HW114694   1.884   5.221   2.001
 4817SOL    HW214695   1.876   5.361   2.060
 4818SOL     OW14696   3.548   4.639   2.499
 4818SOL    HW114697   3.633   4.599   2.480
 4818SOL    HW214698   3.530   4.695   2.423
 4819SOL     OW14699   3.514   4.826   2.290
 4819SOL    HW114700   3.600   4.826   2.249
 4819SOL    HW214701   3.521   4.891   2.360
 4820SOL     OW14702   2.480   5.117   2.596
 4820SOL    HW114703   2.436   5.033   2.604
 4820SOL    HW214704   2.464   5.145   2.506
 4821SOL     OW14705   3.141   4.958   3.292
 4821SOL    HW114706   3.172   4.892   3.230
 4821SOL    HW214707   3.208   4.960   3.360
 4822SOL     OW14708   2.685   3.732   2.377
 4822SOL    HW114709   2.724   3.815   2.352
 4822SOL    HW214710   2.591   3.750   2.381
 4823SOL     OW14711   2.047   4.685   3.131
 4823SOL    HW114712   2.130   4.636   3.125
 4823SOL    HW214713   1.986   4.635   3.076
 4824SOL     OW14714   3.394   4.725   2.062
 4824SOL    HW114715   3.325   4.667   2.095
 4824SOL    HW214716   3.437   4.758   2.141
 4825SOL     OW14717   3.045   5.540   3.489
 4825SOL    HW114718   3.050   5.601   3.415
 4825SOL    HW214719   3.063   5.454   3.450
 4826SOL     OW14720   2.213   3.996   3.782
 4826SOL    HW114721   2.247   3.972   3.696
 4826SOL    HW214722   2.120   4.010   3.768
 4827SOL     OW14723   3.326   5.146   2.804
 4827SOL    HW114724   3.263   5.160   2.875
 4827SOL    HW214725   3.314   5.055   2.778
 4828SOL     OW14726   3.513   5.483   2.438
 4828SOL    HW114727   3.495   5.447   2.351
 4828SOL    HW214728   3.498   5.409   2.497
 4829SOL     OW14729   2.457   4.438   2.134
 4829SOL    HW114730   2.460   4.523   2.090
 4829SOL    HW214731   2.393   4.450   2.204
 4830SOL     OW14732   3.130   4.044   2.770
 4830SOL    HW114733   3.036   4.026   2.766
 4830SOL    HW214734   3.159   4.004   2.852
 4831SOL     OW14735   3.440   5.398   2.173
 4831SOL    HW114736   3.532   5.422   2.165
 4831SOL    HW214737   3.411   5.382   2.084
 4832SOL     OW14738   2.917   4.422   2.287
 4832SOL    HW114739   2.934   4.417   2.381
 4832SOL    HW214740   2.833   4.378   2.275
 4833SOL     OW14741   1.944   4.555   2.632
 4833SOL    HW114742   2.026   4.550   2.682
 4833SOL    HW214743   1.897   4.628   2.671
 4834SOL     OW14744   1.986   5.598   3.446
 4834SOL    HW114745   1.990   5.575   3.539
 4834SOL    HW214746   1.902   5.562   3.417
 4835SOL     OW14747   2.763   4.073   2.057
 4835SOL    HW114748   2.802   4.138   1.999
 4835SOL    HW214749   2.771   3.990   2.009
 4836SOL     OW14750   3.244   4.864   2.404
 4836SOL    HW114751   3.323   4.855   2.352
 4836SOL    HW214752   3.190   4.926   2.355
 4837SOL     OW14753   2.860   5.168   2.329
 4837SOL    HW114754   2.831   5.245   2.279
 4837SOL    HW214755   2.837   5.188   2.419
 4838SOL     OW14756   2.216   5.539   2.735
 4838SOL    HW114757   2.260   5.454   2.740
 4838SOL    HW214758   2.284   5.603   2.753
 4839SOL     OW14759   3.666   4.767   2.726
 4839SOL    HW114760   3.607   4.752   2.652
 4839SOL    HW214761   3.608   4.784   2.800
 4840SOL     OW14762   3.087   5.270   3.376
 4840SOL    HW114763   3.076   5.199   3.439
 4840SOL    HW214764   3.020   5.253   3.309
 4841SOL     OW14765   2.174   4.685   2.117
 4841SOL    HW114766   2.257   4.704   2.074
 4841SOL    HW214767   2.146   4.601   2.081
 4842SOL     OW14768   3.350   4.477   2.587
 4842SOL    HW114769   3.364   4.450   2.677
 4842SOL    HW214770   3.424   4.536   2.568
 4843SOL     OW14771   2.331   5.001   3.608
 4843SOL    HW114772   2.308   5.004   3.515
 4843SOL    HW214773   2.247   4.996   3.654
 4844SOL     OW14774   2.988   5.503   2.089
 4844SOL    HW114775   2.911   5.465   2.132
 4844SOL    HW214776   3.012   5.438   2.022
 4845SOL     OW14777   3.491   5.107   1.954
 4845SOL    HW114778   3.449   5.192   1.939
 4845SOL    HW214779   3.423   5.043   1.932
 4846SOL     OW14780   2.324   5.461   2.180
 4846SOL    HW114781   2.370   5.515   2.244
 4846SOL    HW214782   2.393   5.425   2.125
 4847SOL     OW14783   3.262   3.829   2.306
 4847SOL    HW114784   3.252   3.805   2.214
 4847SOL    HW214785   3.356   3.838   2.319
 4848SOL     OW14786   2.119   5.513   3.089
 4848SOL    HW114787   2.169   5.442   3.129
 4848SOL    HW214788   2.111   5.487   2.997
 4849SOL     OW14789   2.802   5.424   2.757
 4849SOL    HW114790   2.882   5.377   2.779
 4849SOL    HW214791   2.762   5.373   2.687
 4850SOL     OW14792   2.261   4.414   2.336
 4850SOL    HW114793   2.278   4.322   2.353
 4850SOL    HW214794   2.167   4.424   2.353
 4851SOL     OW14795   2.509   3.839   1.964
 4851SOL    HW114796   2.568   3.766   1.982
 4851SOL    HW214797   2.454   3.810   1.892
 4852SOL     OW14798   2.624   3.959   3.584
 4852SOL    HW114799   2.709   3.918   3.598
 4852SOL    HW214800   2.619   4.029   3.648
 4853SOL     OW14801   2.736   5.248   3.058
 4853SOL    HW114802   2.719   5.210   2.972
 4853SOL    HW214803   2.806   5.194   3.094
 4854SOL     OW14804   2.681   5.111   2.811
 4854SOL    HW114805   2.766   5.100   2.769
 4854SOL    HW214806   2.619   5.118   2.738
 4855SOL     OW14807   2.783   4.221   2.768
 4855SOL    HW114808   2.774   4.216   2.673
 4855SOL    HW214809   2.815   4.134   2.793
 4856SOL     OW14810   2.417   3.789   2.357
 4856SOL    HW114811   2.336   3.786   2.408
 4856SOL    HW214812   2.408   3.865   2.300
 4857SOL     OW14813   3.290   4.926   1.900
 4857SOL    HW114814   3.320   4.851   1.952
 4857SOL    HW214815   3.205   4.948   1.937
 4858SOL     OW14816   2.150   3.773   2.048
 4858SOL    HW114817   2.205   3.837   2.003
 4858SOL    HW214818   2.212   3.712   2.089
 4859SOL     OW14819   2.804   3.978   2.317
 4859SOL    HW114820   2.780   4.014   2.232
 4859SOL    HW214821   2.899   3.992   2.323
 4860SOL     OW14822   3.078   5.298   2.658
 4860SOL    HW114823   3.094   5.363   2.590
 4860SOL    HW214824   3.151   5.308   2.719
 4861SOL     OW14825   2.335   4.882   2.584
 4861SOL    HW114826   2.269   4.863   2.651
 4861SOL    HW214827   2.290   4.869   2.501
 4862SOL     OW14828   3.125   5.515   2.475
 4862SOL    HW114829   3.173   5.578   2.421
 4862SOL    HW214830   3.056   5.568   2.516
 4863SOL     OW14831   2.886   4.256   1.889
 4863SOL    HW114832   2.842   4.339   1.869
 4863SOL    HW214833   2.951   4.279   1.956
 4864SOL     OW14834   1.933   4.296   3.239
 4864SOL    HW114835   1.998   4.225   3.247
 4864SOL    HW214836   1.962   4.362   3.302
 4865SOL     OW14837   2.433   3.820   3.013
 4865SOL    HW114838   2.482   3.826   3.095
 4865SOL    HW214839   2.345   3.851   3.036
 4866SOL     OW14840   2.719   4.176   2.508
 4866SOL    HW114841   2.676   4.240   2.452
 4866SOL    HW214842   2.745   4.105   2.449
 4867SOL     OW14843   2.877   3.770   2.603
 4867SOL    HW114844   2.817   3.766   2.528
 4867SOL    HW214845   2.851   3.697   2.659
 4868SOL     OW14846   3.294   4.887   2.717
 4868SOL    HW114847   3.249   4.805   2.735
 4868SOL    HW214848   3.302   4.890   2.621
 4869SOL     OW14849   3.703   4.533   2.246
 4869SOL    HW114850   3.761   4.485   2.305
 4869SOL    HW214851   3.679   4.469   2.179
 4870SOL     OW14852   2.351   5.147   2.013
 4870SOL    HW114853   2.275   5.118   2.063
 4870SOL    HW214854   2.349   5.094   1.934
 4871SOL     OW14855   3.544   4.991   2.497
 4871SOL    HW114856   3.637   4.989   2.516
 4871SOL    HW214857   3.515   5.078   2.524
 4872SOL     OW14858   3.255   4.297   1.932
 4872SOL    HW114859   3.194   4.276   2.002
 4872SOL    HW214860   3.341   4.270   1.964
 4873SOL     OW14861   2.386   3.986   2.172
 4873SOL    HW114862   2.437   3.941   2.104
 4873SOL    HW214863   2.360   4.069   2.131
 4874SOL     OW14864   3.614   4.968   3.443
 4874SOL    HW114865   3.696   4.924   3.465
 4874SOL    HW214866   3.634   5.062   3.454
 4875SOL     OW14867   2.917   5.078   3.192
 4875SOL    HW114868   2.840   5.047   3.239
 4875SOL    HW214869   2.990   5.035   3.235
 4876SOL     OW14870   3.472   5.355   3.523
 4876SOL    HW114871   3.462   5.388   3.433
 4876SOL    HW214872   3.553   5.304   3.520
 4877SOL     OW14873   2.994   4.931   2.964
 4877SOL    HW114874   2.935   4.973   3.027
 4877SOL    HW214875   2.968   4.969   2.880
 4878SOL     OW14876   3.499   4.841   2.922
 4878SOL    HW114877   3.491   4.887   3.005
 4878SOL    HW214878   3.415   4.855   2.878
 4879SOL     OW14879   2.807   3.808   3.252
 4879SOL    HW114880   2.833   3.793   3.161
 4879SOL    HW214881   2.884   3.850   3.292
 4880SOL     OW14882   2.573   4.788   2.232
 4880SOL    HW114883   2.558   4.768   2.325
 4880SOL    HW214884   2.648   4.734   2.208
 4881SOL     OW14885   2.265   4.515   3.129
 4881SOL    HW114886   2.332   4.544   3.190
 4881SOL    HW214887   2.248   4.424   3.153
 4882SOL     OW14888   1.938   5.298   3.221
 4882SOL    HW114889   1.910   5.368   3.162
 4882SOL    HW214890   2.033   5.296   3.211
 4883SOL     OW14891   2.194   4.846   2.350
 4883SOL    HW114892   2.197   4.919   2.287
 4883SOL    HW214893   2.193   4.768   2.295
 4884SOL     OW14894   3.109   5.074   2.254
 4884SOL    HW114895   3.165   5.144   2.286
 4884SOL    HW214896   3.022   5.095   2.287
 4885SOL     OW14897   3.154   5.186   3.012
 4885SOL    HW114898   3.211   5.193   3.089
 4885SOL    HW214899   3.098   5.111   3.030
 4886SOL     OW14900   3.439   4.340   2.350
 4886SOL    HW114901   3.388   4.388   2.415
 4886SOL    HW214902   3.483   4.408   2.299
 4887SOL     OW14903   2.208   5.254   3.171
 4887SOL    HW114904   2.196   5.208   3.088
 4887SOL    HW214905   2.303   5.266   3.179
 4888SOL     OW14906   2.868   3.842   3.609
 4888SOL    HW114907   2.932   3.912   3.598
 4888SOL    HW214908   2.912   3.764   3.577
 4889SOL     OW14909   2.412   4.601   2.898
 4889SOL    HW114910   2.473   4.674   2.910
 4889SOL    HW214911   2.380   4.582   2.986
 4890SOL     OW14912   3.228   4.620   2.859
 4890SOL    HW114913   3.135   4.601   2.845
 4890SOL    HW214914   3.260   4.545   2.909
 4891SOL     OW14915   3.061   4.251   2.123
 4891SOL    HW114916   3.068   4.172   2.177
 4891SOL    HW214917   3.019   4.316   2.179
 4892SOL     OW14918   2.171   3.905   3.083
 4892SOL    HW114919   2.136   3.966   3.148
 4892SOL    HW214920   2.135   3.820   3.108
 4893SOL     OW14921   1.909   5.037   3.135
 4893SOL    HW114922   1.941   4.981   3.205
 4893SOL    HW214923   1.914   5.126   3.171
 4894SOL     OW14924   3.604   4.681   3.708
 4894SOL    HW114925   3.559   4.639   3.634
 4894SOL    HW214926   3.535   4.694   3.773
 4895SOL     OW14927   2.175   3.783   2.487
 4895SOL    HW114928   2.146   3.872   2.507
 4895SOL    HW214929   2.181   3.739   2.573
 4896SOL     OW14930   3.484   4.104   2.220
 4896SOL    HW114931   3.514   4.039   2.284
 4896SOL    HW214932   3.460   4.180   2.272
 4897SOL     OW14933   2.865   4.479   2.813
 4897SOL    HW114934   2.916   4.481   2.894
 4897SOL    HW214935   2.833   4.389   2.806
 4898SOL     OW14936   2.842   5.296   3.584
 4898SOL    HW114937   2.826   5.338   3.499
 4898SOL    HW214938   2.884   5.213   3.562
 4899SOL     OW14939   3.713   5.227   3.467
 4899SOL    HW114940   3.734   5.255   3.378
 4899SOL    HW214941   3.794   5.240   3.517
 4900SOL     OW14942   3.387   3.994   1.987
 4900SOL    HW114943   3.324   3.929   2.017
 4900SOL    HW214944   3.422   4.032   2.067
 4901SOL     OW14945   3.147   4.548   1.888
 4901SOL    HW114946   3.189   4.462   1.893
 4901SOL    HW214947   3.180   4.586   1.807
 4902SOL     OW14948   2.932   5.064   2.721
 4902SOL    HW114949   2.939   4.992   2.658
 4902SOL    HW214950   2.989   5.132   2.686
 4903SOL     OW14951   2.158   4.558   2.806
 4903SOL    HW114952   2.250   4.572   2.825
 4903SOL    HW214953   2.142   4.466   2.827
 4904SOL     OW14954   2.132   4.285   2.825
 4904SOL    HW114955   2.113   4.192   2.835
 4904SOL    HW214956   2.224   4.288   2.800
 4905SOL     OW14957   1.871   5.039   2.055
 4905SOL    HW114958   1.783   5.056   2.020
 4905SOL    HW214959   1.865   4.950   2.090
 4906SOL     OW14960   1.952   5.505   2.805
 4906SOL    HW114961   1.921   5.427   2.757
 4906SOL    HW214962   2.041   5.519   2.772
 4907SOL     OW14963   2.352   5.298   2.766
 4907SOL    HW114964   2.421   5.360   2.790
 4907SOL    HW214965   2.395   5.236   2.708
 4908SOL     OW14966   1.893   4.287   2.969
 4908SOL    HW114967   1.973   4.296   2.917
 4908SOL    HW214968   1.923   4.287   3.059
 4909SOL     OW14969   3.237   4.690   3.517
 4909SOL    HW114970   3.274   4.777   3.507
 4909SOL    HW214971   3.268   4.642   3.441
 4910SOL     OW14972   2.682   4.293   2.230
 4910SOL    HW114973   2.685   4.220   2.168
 4910SOL    HW214974   2.607   4.345   2.201
 4911SOL     OW14975   2.097   5.273   3.584
 4911SOL    HW114976   2.077   5.338   3.652
 4911SOL    HW214977   2.109   5.191   3.632
 4912SOL     OW14978   2.782   5.404   3.333
 4912SOL    HW114979   2.758   5.362   3.250
 4912SOL    HW214980   2.776   5.498   3.315
 4913SOL     OW14981   2.319   4.215   2.043
 4913SOL    HW114982   2.379   4.285   2.067
 4913SOL    HW214983   2.234   4.259   2.034
 4914SOL     OW14984   2.003   4.858   3.331
 4914SOL    HW114985   2.027   4.805   3.407
 4914SOL    HW214986   2.015   4.800   3.256
 4915SOL     OW14987   3.188   4.779   3.082
 4915SOL    HW114988   3.222   4.730   3.008
 4915SOL    HW214989   3.115   4.830   3.046
 4916SOL     OW14990   3.181   4.579   2.163
 4916SOL    HW114991   3.107   4.551   2.217
 4916SOL    HW214992   3.152   4.566   2.073
 4917SOL     OW14993   3.645   5.458   3.023
 4917SOL    HW114994   3.703   5.484   2.951
 4917SOL    HW214995   3.615   5.370   2.999
 4918SOL     OW14996   3.101   5.457   2.966
 4918SOL    HW114997   3.184   5.482   2.925
 4918SOL    HW214998   3.112   5.364   2.987
 4919SOL     OW14999   1.944   4.995   2.870
 4919SOL    HW115000   1.927   5.007   2.963
 4919SOL    HW215001   1.877   4.934   2.841
 4920SOL     OW15002   2.542   5.399   3.606
 4920SOL    HW115003   2.485   5.474   3.592
 4920SOL    HW215004   2.615   5.413   3.545
 4921SOL     OW15005   3.587   3.883   2.368
 4921SOL    HW115006   3.656   3.869   2.303
 4921SOL    HW215007   3.570   3.797   2.405
 4922SOL     OW15008   3.256   5.291   2.355
 4922SOL    HW115009   3.313   5.326   2.286
 4922SOL    HW215010   3.204   5.367   2.384
 4923SOL     OW15011   2.003   5.521   3.705
 4923SOL    HW115012   1.953   5.453   3.751
 4923SOL    HW215013   2.050   5.568   3.774
 4924SOL     OW15014   3.137   4.647   2.528
 4924SOL    HW115015   3.213   4.591   2.545
 4924SOL    HW215016   3.172   4.720   2.478
 4925SOL     OW15017   2.672   5.002   3.290
 4925SOL    HW115018   2.643   5.042   3.372
 4925SOL    HW215019   2.597   5.008   3.232
 4926SOL     OW15020   2.529   5.352   2.018
 4926SOL    HW115021   2.543   5.366   1.924
 4926SOL    HW215022   2.475   5.274   2.023
 4927SOL     OW15023   3.479   5.453   3.255
 4927SOL    HW115024   3.535   5.455   3.177
 4927SOL    HW215025   3.466   5.544   3.278
 4928SOL     OW15026   3.705   3.910   2.813
 4928SOL    HW115027   3.732   3.819   2.798
 4928SOL    HW215028   3.612   3.912   2.791
 4929SOL     OW15029   2.115   4.035   2.572
 4929SOL    HW115030   2.029   4.069   2.546
 4929SOL    HW215031   2.111   4.031   2.667
 4930SOL     OW15032   3.070   5.323   1.896
 4930SOL    HW115033   3.059   5.232   1.923
 4930SOL    HW215034   3.004   5.337   1.828
 4931SOL     OW15035   2.700   4.733   3.215
 4931SOL    HW115036   2.709   4.759   3.123
 4931SOL    HW215037   2.698   4.815   3.263
 4932SOL     OW15038   2.779   4.634   2.153
 4932SOL    HW115039   2.839   4.668   2.086
 4932SOL    HW215040   2.829   4.567   2.199
 4933SOL     OW15041   3.350   5.355   1.908
 4933SOL    HW115042   3.256   5.343   1.893
 4933SOL    HW215043   3.388   5.360   1.821
 4934SOL     OW15044   2.223   5.034   3.362
 4934SOL    HW115045   2.218   5.108   3.301
 4934SOL    HW215046   2.152   4.976   3.335
 4935SOL     OW15047   3.470   5.016   3.137
 4935SOL    HW115048   3.511   4.971   3.210
 4935SOL    HW215049   3.412   5.081   3.178
 4936SOL     OW15050   2.925   4.836   2.574
 4936SOL    HW115051   2.852   4.787   2.611
 4936SOL    HW215052   2.988   4.768   2.548
 4937SOL     OW15053   2.872   3.959   2.810
 4937SOL    HW115054   2.869   3.903   2.732
 4937SOL    HW215055   2.868   3.898   2.884
 4938SOL     OW15056   2.468   5.213   2.341
 4938SOL    HW115057   2.519   5.162   2.277
 4938SOL    HW215058   2.391   5.242   2.292
 4939SOL     OW15059   2.126   5.066   2.155
 4939SOL    HW115060   2.033   5.061   2.130
 4939SOL    HW215061   2.125   5.107   2.241
 4940SOL     OW15062   2.559   3.893   3.322
 4940SOL    HW115063   2.650   3.872   3.299
 4940SOL    HW215064   2.564   3.931   3.409
 4941SOL     OW15065   1.943   4.050   1.891
 4941SOL    HW115066   1.857   4.031   1.853
 4941SOL    HW215067   1.973   4.129   1.846
 4942SOL     OW15068   3.314   4.598   3.256
 4942SOL    HW115069   3.265   4.660   3.201
 4942SOL    HW215070   3.401   4.637   3.264
 4943SOL     OW15071   1.922   3.877   2.161
 4943SOL    HW115072   1.909   3.956   2.108
 4943SOL    HW215073   2.007   3.844   2.133
 4944SOL     OW15074   3.040   5.057   1.981
 4944SOL    HW115075   2.950   5.025   1.983
 4944SOL    HW215076   3.067   5.059   2.073
 4945SOL     OW15077   2.470   4.589   3.286
 4945SOL    HW115078   2.554   4.635   3.279
 4945SOL    HW215079   2.479   4.534   3.364
 4946SOL     OW15080   3.345   5.514   2.848
 4946SOL    HW115081   3.370   5.580   2.783
 4946SOL    HW215082   3.428   5.477   2.878
 4947SOL     OW15083   3.341   4.942   3.490
 4947SOL    HW115084   3.329   4.950   3.584
 4947SOL    HW215085   3.435   4.952   3.476
 4948SOL     OW15086   2.231   5.466   3.429
 4948SOL    HW115087   2.148   5.512   3.413
 4948SOL    HW215088   2.205   5.383   3.468
 4949SOL     OW15089   3.077   4.043   2.318
 4949SOL    HW115090   3.139   3.970   2.313
 4949SOL    HW215091   3.108   4.095   2.391
 4950SOL     OW15092   2.475   4.453   2.515
 4950SOL    HW115093   2.501   4.545   2.510
 4950SOL    HW215094   2.399   4.446   2.458
 4951SOL     OW15095   3.598   4.050   3.635
 4951SOL    HW115096   3.578   4.009   3.550
 4951SOL    HW215097   3.543   4.003   3.698
 4952SOL     OW15098   3.552   4.738   3.266
 4952SOL    HW115099   3.582   4.796   3.337
 4952SOL    HW215100   3.626   4.681   3.249
 4953SOL     OW15101   2.724   5.088   1.907
 4953SOL    HW115102   2.689   5.114   1.992
 4953SOL    HW215103   2.741   5.171   1.861
 4954SOL     OW15104   2.526   5.506   2.798
 4954SOL    HW115105   2.508   5.598   2.780
 4954SOL    HW215106   2.621   5.498   2.793
 4955SOL     OW15107   2.728   4.702   2.715
 4955SOL    HW115108   2.768   4.623   2.750
 4955SOL    HW215109   2.689   4.746   2.791
 4956SOL     OW15110   2.939   4.713   1.951
 4956SOL    HW115111   2.917   4.765   1.873
 4956SOL    HW215112   3.012   4.658   1.924
 4957SOL     OW15113   3.708   5.276   2.703
 4957SOL    HW115114   3.627   5.263   2.653
 4957SOL    HW215115   3.704   5.209   2.772
 4958SOL     OW15116   2.086   5.025   3.725
 4958SOL    HW115117   1.996   4.994   3.714
 4958SOL    HW215118   2.096   5.038   3.820
 4959SOL     OW15119   1.955   4.952   2.527
 4959SOL    HW115120   1.974   4.912   2.612
 4959SOL    HW215121   2.020   4.914   2.467
 4960SOL     OW15122   2.546   5.139   3.492
 4960SOL    HW115123   2.474   5.089   3.532
 4960SOL    HW215124   2.539   5.226   3.532
 4961SOL     OW15125   2.296   4.152   2.395
 4961SOL    HW115126   2.322   4.087   2.329
 4961SOL    HW215127   2.234   4.106   2.451
 4962SOL     OW15128   3.555   5.212   2.953
 4962SOL    HW115129   3.478   5.191   2.900
 4962SOL    HW215130   3.559   5.142   3.018
 4963SOL     OW15131   2.695   5.303   2.536
 4963SOL    HW115132   2.669   5.367   2.470
 4963SOL    HW215133   2.621   5.243   2.541
 4964SOL     OW15134   3.243   3.922   2.986
 4964SOL    HW115135   3.260   3.832   2.960
 4964SOL    HW215136   3.324   3.969   2.963
 4965SOL     OW15137   2.879   3.741   2.994
 4965SOL    HW115138   2.821   3.678   2.951
 4965SOL    HW215139   2.965   3.700   2.992
 4966SOL     OW15140   2.638   5.058   2.183
 4966SOL    HW115141   2.611   4.967   2.192
 4966SOL    HW215142   2.719   5.065   2.234
 4967SOL     OW15143   2.480   5.283   3.147
 4967SOL    HW115144   2.481   5.365   3.196
 4967SOL    HW215145   2.569   5.274   3.113
 4968SOL     OW15146   3.220   3.774   2.038
 4968SOL    HW115147   3.255   3.705   1.981
 4968SOL    HW215148   3.130   3.747   2.057
 4969SOL     OW15149   3.159   4.189   2.535
 4969SOL    HW115150   3.108   4.269   2.545
 4969SOL    HW215151   3.152   4.145   2.619
 4970SOL     OW15152   3.428   3.945   2.749
 4970SOL    HW115153   3.334   3.948   2.733
 4970SOL    HW215154   3.464   4.016   2.696
 4971SOL     OW15155   1.904   4.788   2.171
 4971SOL    HW115156   1.998   4.779   2.152
 4971SOL    HW215157   1.876   4.699   2.192
 4972SOL     OW15158   2.752   5.387   2.198
 4972SOL    HW115159   2.676   5.371   2.142
 4972SOL    HW215160   2.725   5.458   2.256
 4973SOL     OW15161   2.011   4.286   3.850
 4973SOL    HW115162   1.934   4.304   3.904
 4973SOL    HW215163   2.054   4.371   3.839
 4974SOL     OW15164   2.086   4.009   4.717
 4974SOL    HW115165   2.114   3.974   4.801
 4974SOL    HW215166   1.997   3.976   4.705
 4975SOL     OW15167   1.858   4.109   4.363
 4975SOL    HW115168   1.777   4.135   4.408
 4975SOL    HW215169   1.834   4.032   4.312
 4976SOL     OW15170   2.431   5.023   4.910
 4976SOL    HW115171   2.345   5.030   4.867
 4976SOL    HW215172   2.448   5.112   4.942
 4977SOL     OW15173   3.437   5.239   4.433
 4977SOL    HW115174   3.392   5.216   4.514
 4977SOL    HW215175   3.367   5.244   4.367
 4978SOL     OW15176   3.001   4.425   4.428
 4978SOL    HW115177   3.048   4.507   4.415
 4978SOL    HW215178   2.954   4.438   4.510
 4979SOL     OW15179   3.647   4.309   3.951
 4979SOL    HW115180   3.614   4.285   3.864
 4979SOL    HW215181   3.614   4.241   4.009
 4980SOL     OW15182   2.604   4.860   4.772
 4980SOL    HW115183   2.539   4.899   4.831
 4980SOL    HW215184   2.645   4.935   4.729
 4981SOL     OW15185   2.739   4.483   5.550
 4981SOL    HW115186   2.728   4.552   5.614
 4981SOL    HW215187   2.760   4.529   5.468
 4982SOL     OW15188   2.543   4.712   4.378
 4982SOL    HW115189   2.612   4.709   4.444
 4982SOL    HW215190   2.478   4.772   4.414
 4983SOL     OW15191   2.576   4.873   5.544
 4983SOL    HW115192   2.624   4.950   5.576
 4983SOL    HW215193   2.497   4.909   5.505
 4984SOL     OW15194   2.194   5.139   4.791
 4984SOL    HW115195   2.119   5.099   4.746
 4984SOL    HW215196   2.238   5.191   4.723
 4985SOL     OW15197   3.321   5.227   5.087
 4985SOL    HW115198   3.375   5.305   5.096
 4985SOL    HW215199   3.252   5.238   5.153
 4986SOL     OW15200   2.314   4.114   5.197
 4986SOL    HW115201   2.390   4.057   5.209
 4986SOL    HW215202   2.239   4.060   5.220
 4987SOL     OW15203   3.465   4.164   4.469
 4987SOL    HW115204   3.391   4.181   4.411
 4987SOL    HW215205   3.468   4.240   4.527
 4988SOL     OW15206   2.082   5.439   4.192
 4988SOL    HW115207   2.103   5.514   4.248
 4988SOL    HW215208   2.157   5.433   4.132
 4989SOL     OW15209   2.999   5.067   5.419
 4989SOL    HW115210   3.041   5.059   5.504
 4989SOL    HW215211   2.947   4.987   5.411
 4990SOL     OW15212   2.096   5.166   4.253
 4990SOL    HW115213   2.079   5.260   4.254
 4990SOL    HW215214   2.039   5.130   4.321
 4991SOL     OW15215   2.131   4.815   4.616
 4991SOL    HW115216   2.125   4.727   4.653
 4991SOL    HW215217   2.072   4.867   4.671
 4992SOL     OW15218   2.460   5.518   5.149
 4992SOL    HW115219   2.380   5.499   5.198
 4992SOL    HW215220   2.487   5.605   5.178
 4993SOL     OW15221   3.457   3.853   5.187
 4993SOL    HW115222   3.484   3.932   5.142
 4993SOL    HW215223   3.435   3.882   5.276
 4994SOL     OW15224   1.970   4.375   4.289
 4994SOL    HW115225   1.938   4.288   4.311
 4994SOL    HW215226   1.963   4.425   4.370
 4995SOL     OW15227   3.706   5.476   4.053
 4995SOL    HW115228   3.776   5.452   4.114
 4995SOL    HW215229   3.722   5.568   4.033
 4996SOL     OW15230   1.904   5.313   3.844
 4996SOL    HW115231   1.881   5.222   3.863
 4996SOL    HW215232   1.877   5.361   3.922
 4997SOL     OW15233   3.552   4.643   4.370
 4997SOL    HW115234   3.636   4.601   4.349
 4997SOL    HW215235   3.532   4.695   4.292
 4998SOL     OW15236   3.511   4.824   4.153
 4998SOL    HW115237   3.596   4.825   4.109
 4998SOL    HW215238   3.520   4.889   4.223
 4999SOL     OW15239   1.987   4.469   5.307
 4999SOL    HW115240   2.077   4.501   5.310
 4999SOL    HW215241   1.934   4.548   5.309
 5000SOL     OW15242   2.479   5.117   4.459
 5000SOL    HW115243   2.435   5.032   4.467
 5000SOL    HW215244   2.464   5.143   4.368
 5001SOL     OW15245   3.146   4.959   5.144
 5001SOL    HW115246   3.176   4.890   5.084
 5001SOL    HW215247   3.206   4.954   5.219
 5002SOL     OW15248   2.685   3.726   4.243
 5002SOL    HW115249   2.723   3.811   4.221
 5002SOL    HW215250   2.591   3.742   4.248
 5003SOL     OW15251   2.050   4.684   5.006
 5003SOL    HW115252   2.136   4.646   4.990
 5003SOL    HW215253   1.991   4.637   4.946
 5004SOL     OW15254   3.386   4.721   3.918
 5004SOL    HW115255   3.315   4.663   3.947
 5004SOL    HW215256   3.427   4.750   3.999
 5005SOL     OW15257   3.043   5.539   5.351
 5005SOL    HW115258   3.050   5.600   5.278
 5005SOL    HW215259   3.063   5.454   5.312
 5006SOL     OW15260   2.207   3.973   5.558
 5006SOL    HW115261   2.247   4.057   5.582
 5006SOL    HW215262   2.114   3.984   5.576
 5007SOL     OW15263   3.330   5.144   4.669
 5007SOL    HW115264   3.264   5.161   4.736
 5007SOL    HW215265   3.316   5.053   4.644
 5008SOL     OW15266   3.513   5.483   4.300
 5008SOL    HW115267   3.495   5.448   4.212
 5008SOL    HW215268   3.498   5.409   4.359
 5009SOL     OW15269   3.140   4.092   4.659
 5009SOL    HW115270   3.052   4.057   4.668
 5009SOL    HW215271   3.194   4.038   4.717
 5010SOL     OW15272   3.440   5.398   4.036
 5010SOL    HW115273   3.532   5.422   4.027
 5010SOL    HW215274   3.410   5.382   3.946
 5011SOL     OW15275   2.652   4.342   5.168
 5011SOL    HW115276   2.628   4.316   5.257
 5011SOL    HW215277   2.620   4.271   5.113
 5012SOL     OW15278   3.254   4.198   5.402
 5012SOL    HW115279   3.259   4.242   5.486
 5012SOL    HW215280   3.310   4.121   5.412
 5013SOL     OW15281   2.811   4.608   5.311
 5013SOL    HW115282   2.866   4.541   5.272
 5013SOL    HW215283   2.762   4.645   5.238
 5014SOL     OW15284   2.857   4.133   4.955
 5014SOL    HW115285   2.768   4.149   4.984
 5014SOL    HW215286   2.848   4.089   4.871
 5015SOL     OW15287   2.910   4.424   4.169
 5015SOL    HW115288   2.944   4.420   4.259
 5015SOL    HW215289   2.817   4.406   4.178
 5016SOL     OW15290   1.949   4.546   4.502
 5016SOL    HW115291   2.030   4.539   4.553
 5016SOL    HW215292   1.904   4.622   4.539
 5017SOL     OW15293   1.986   5.598   5.308
 5017SOL    HW115294   1.990   5.575   5.401
 5017SOL    HW215295   1.902   5.562   5.279
 5018SOL     OW15296   3.563   4.293   5.555
 5018SOL    HW115297   3.530   4.367   5.505
 5018SOL    HW215298   3.592   4.230   5.489
 5019SOL     OW15299   3.244   4.863   4.258
 5019SOL    HW115300   3.326   4.859   4.209
 5019SOL    HW215301   3.191   4.928   4.211
 5020SOL     OW15302   2.414   3.900   4.624
 5020SOL    HW115303   2.416   3.928   4.716
 5020SOL    HW215304   2.409   3.981   4.574
 5021SOL     OW15305   2.863   5.170   4.191
 5021SOL    HW115306   2.833   5.245   4.140
 5021SOL    HW215307   2.836   5.190   4.281
 5022SOL     OW15308   2.216   5.539   4.597
 5022SOL    HW115309   2.261   5.455   4.602
 5022SOL    HW215310   2.284   5.604   4.615
 5023SOL     OW15311   3.663   4.773   4.599
 5023SOL    HW115312   3.611   4.756   4.520
 5023SOL    HW215313   3.599   4.781   4.669
 5024SOL     OW15314   3.088   5.265   5.238
 5024SOL    HW115315   3.076   5.193   5.300
 5024SOL    HW215316   3.020   5.251   5.172
 5025SOL     OW15317   3.345   4.476   4.446
 5025SOL    HW115318   3.342   4.436   4.532
 5025SOL    HW215319   3.423   4.531   4.447
 5026SOL     OW15320   2.333   4.994   5.462
 5026SOL    HW115321   2.307   4.998   5.370
 5026SOL    HW215322   2.251   4.989   5.511
 5027SOL     OW15323   2.988   5.502   3.953
 5027SOL    HW115324   2.911   5.464   3.995
 5027SOL    HW215325   3.012   5.440   3.885
 5028SOL     OW15326   2.064   3.992   5.228
 5028SOL    HW115327   1.984   4.044   5.236
 5028SOL    HW215328   2.042   3.907   5.265
 5029SOL     OW15329   3.493   5.109   3.821
 5029SOL    HW115330   3.453   5.194   3.803
 5029SOL    HW215331   3.426   5.045   3.797
 5030SOL     OW15332   2.324   5.460   4.043
 5030SOL    HW115333   2.370   5.516   4.106
 5030SOL    HW215334   2.393   5.426   3.986
 5031SOL     OW15335   3.263   3.831   4.168
 5031SOL    HW115336   3.255   3.810   4.075
 5031SOL    HW215337   3.357   3.835   4.183
 5032SOL     OW15338   2.118   5.514   4.951
 5032SOL    HW115339   2.167   5.442   4.991
 5032SOL    HW215340   2.110   5.488   4.859
 5033SOL     OW15341   2.802   5.424   4.619
 5033SOL    HW115342   2.883   5.377   4.640
 5033SOL    HW215343   2.762   5.373   4.549
 5034SOL     OW15344   2.240   4.419   4.221
 5034SOL    HW115345   2.266   4.327   4.222
 5034SOL    HW215346   2.146   4.417   4.236
 5035SOL     OW15347   3.387   3.948   5.447
 5035SOL    HW115348   3.399   3.969   5.540
 5035SOL    HW215349   3.320   3.880   5.445
 5036SOL     OW15350   2.490   3.844   3.834
 5036SOL    HW115351   2.556   3.779   3.812
 5036SOL    HW215352   2.454   3.871   3.750
 5037SOL     OW15353   2.624   4.002   5.480
 5037SOL    HW115354   2.706   3.952   5.476
 5037SOL    HW215355   2.579   3.969   5.557
 5038SOL     OW15356   2.736   5.246   4.920
 5038SOL    HW115357   2.719   5.209   4.833
 5038SOL    HW215358   2.806   5.192   4.956
 5039SOL     OW15359   3.199   4.314   5.158
 5039SOL    HW115360   3.231   4.283   5.242
 5039SOL    HW215361   3.237   4.401   5.149
 5040SOL     OW15362   2.681   5.111   4.672
 5040SOL    HW115363   2.766   5.101   4.630
 5040SOL    HW215364   2.619   5.120   4.599
 5041SOL     OW15365   2.796   4.234   4.627
 5041SOL    HW115366   2.774   4.226   4.534
 5041SOL    HW215367   2.824   4.146   4.652
 5042SOL     OW15368   2.418   3.782   4.228
 5042SOL    HW115369   2.338   3.780   4.280
 5042SOL    HW215370   2.407   3.857   4.170
 5043SOL     OW15371   3.292   4.932   3.763
 5043SOL    HW115372   3.319   4.853   3.810
 5043SOL    HW215373   3.207   4.955   3.800
 5044SOL     OW15374   2.143   3.768   3.918
 5044SOL    HW115375   2.189   3.843   3.880
 5044SOL    HW215376   2.212   3.712   3.953
 5045SOL     OW15377   2.806   3.974   4.186
 5045SOL    HW115378   2.796   3.984   4.092
 5045SOL    HW215379   2.899   3.988   4.203
 5046SOL     OW15380   2.943   4.410   5.180
 5046SOL    HW115381   2.879   4.339   5.185
 5046SOL    HW215382   3.027   4.365   5.175
 5047SOL     OW15383   3.079   5.299   4.520
 5047SOL    HW115384   3.093   5.363   4.450
 5047SOL    HW215385   3.150   5.316   4.582
 5048SOL     OW15386   2.334   4.881   4.451
 5048SOL    HW115387   2.270   4.859   4.519
 5048SOL    HW215388   2.287   4.870   4.369
 5049SOL     OW15389   3.124   5.516   4.338
 5049SOL    HW115390   3.173   5.578   4.283
 5049SOL    HW215391   3.055   5.569   4.377
 5050SOL     OW15392   1.948   4.278   5.116
 5050SOL    HW115393   2.040   4.278   5.090
 5050SOL    HW215394   1.942   4.347   5.182
 5051SOL     OW15395   2.419   3.951   4.897
 5051SOL    HW115396   2.461   3.880   4.946
 5051SOL    HW215397   2.327   3.948   4.924
 5052SOL     OW15398   2.728   4.186   4.365
 5052SOL    HW115399   2.641   4.215   4.337
 5052SOL    HW215400   2.747   4.111   4.310
 5053SOL     OW15401   2.878   3.779   4.471
 5053SOL    HW115402   2.820   3.769   4.396
 5053SOL    HW215403   2.857   3.705   4.528
 5054SOL     OW15404   3.303   4.884   4.582
 5054SOL    HW115405   3.229   4.823   4.582
 5054SOL    HW215406   3.328   4.891   4.490
 5055SOL     OW15407   3.327   4.335   4.689
 5055SOL    HW115408   3.270   4.259   4.694
 5055SOL    HW215409   3.385   4.327   4.765
 5056SOL     OW15410   3.700   4.530   4.105
 5056SOL    HW115411   3.758   4.483   4.166
 5056SOL    HW215412   3.677   4.465   4.039
 5057SOL     OW15413   2.354   5.149   3.875
 5057SOL    HW115414   2.276   5.119   3.922
 5057SOL    HW215415   2.359   5.092   3.798
 5058SOL     OW15416   3.540   4.987   4.364
 5058SOL    HW115417   3.635   4.985   4.380
 5058SOL    HW215418   3.514   5.076   4.386
 5059SOL     OW15419   2.379   3.978   4.045
 5059SOL    HW115420   2.425   3.930   3.976
 5059SOL    HW215421   2.323   4.040   3.999
 5060SOL     OW15422   3.609   4.967   5.282
 5060SOL    HW115423   3.696   4.929   5.274
 5060SOL    HW215424   3.624   5.056   5.313
 5061SOL     OW15425   2.915   5.077   5.055
 5061SOL    HW115426   2.840   5.046   5.104
 5061SOL    HW215427   2.990   5.035   5.097
 5062SOL     OW15428   3.471   5.352   5.383
 5062SOL    HW115429   3.463   5.387   5.294
 5062SOL    HW215430   3.552   5.302   5.382
 5063SOL     OW15431   2.998   4.936   4.825
 5063SOL    HW115432   2.939   4.974   4.890
 5063SOL    HW215433   2.970   4.972   4.742
 5064SOL     OW15434   3.483   4.819   4.800
 5064SOL    HW115435   3.476   4.882   4.871
 5064SOL    HW215436   3.409   4.839   4.743
 5065SOL     OW15437   2.781   3.815   5.114
 5065SOL    HW115438   2.804   3.798   5.023
 5065SOL    HW215439   2.859   3.855   5.152
 5066SOL     OW15440   2.846   4.840   5.447
 5066SOL    HW115441   2.755   4.856   5.472
 5066SOL    HW215442   2.842   4.760   5.393
 5067SOL     OW15443   2.570   4.804   4.112
 5067SOL    HW115444   2.563   4.768   4.201
 5067SOL    HW215445   2.631   4.745   4.067
 5068SOL     OW15446   2.284   4.544   4.976
 5068SOL    HW115447   2.352   4.554   5.043
 5068SOL    HW215448   2.250   4.455   4.989
 5069SOL     OW15449   3.125   4.098   5.007
 5069SOL    HW115450   3.157   4.176   5.052
 5069SOL    HW215451   3.034   4.119   4.985
 5070SOL     OW15452   1.938   5.298   5.083
 5070SOL    HW115453   1.910   5.369   5.025
 5070SOL    HW215454   2.033   5.296   5.073
 5071SOL     OW15455   2.199   4.835   4.209
 5071SOL    HW115456   2.225   4.901   4.144
 5071SOL    HW215457   2.247   4.756   4.184
 5072SOL     OW15458   2.410   4.252   4.579
 5072SOL    HW115459   2.424   4.311   4.506
 5072SOL    HW215460   2.474   4.279   4.645
 5073SOL     OW15461   3.112   5.074   4.118
 5073SOL    HW115462   3.166   5.146   4.149
 5073SOL    HW215463   3.024   5.095   4.148
 5074SOL     OW15464   3.154   5.186   4.873
 5074SOL    HW115465   3.209   5.192   4.951
 5074SOL    HW215466   3.099   5.109   4.889
 5075SOL     OW15467   3.439   4.349   4.211
 5075SOL    HW115468   3.392   4.392   4.282
 5075SOL    HW215469   3.486   4.419   4.167
 5076SOL     OW15470   2.207   5.255   5.032
 5076SOL    HW115471   2.197   5.208   4.949
 5076SOL    HW215472   2.302   5.266   5.041
 5077SOL     OW15473   2.281   4.470   5.329
 5077SOL    HW115474   2.344   4.513   5.271
 5077SOL    HW215475   2.319   4.384   5.347
 5078SOL     OW15476   3.473   4.505   5.412
 5078SOL    HW115477   3.387   4.547   5.406
 5078SOL    HW215478   3.525   4.547   5.343
 5079SOL     OW15479   2.858   3.859   5.477
 5079SOL    HW115480   2.916   3.932   5.457
 5079SOL    HW215481   2.907   3.781   5.452
 5080SOL     OW15482   2.359   3.759   5.475
 5080SOL    HW115483   2.310   3.706   5.412
 5080SOL    HW215484   2.303   3.835   5.491
 5081SOL     OW15485   2.447   4.599   4.756
 5081SOL    HW115486   2.482   4.687   4.760
 5081SOL    HW215487   2.391   4.592   4.834
 5082SOL     OW15488   3.205   4.582   4.742
 5082SOL    HW115489   3.117   4.563   4.709
 5082SOL    HW215490   3.253   4.500   4.732
 5083SOL     OW15491   3.036   4.244   4.007
 5083SOL    HW115492   3.058   4.169   4.063
 5083SOL    HW215493   2.995   4.306   4.066
 5084SOL     OW15494   2.157   3.920   4.970
 5084SOL    HW115495   2.121   3.952   5.053
 5084SOL    HW215496   2.139   3.826   4.970
 5085SOL     OW15497   1.910   5.036   4.997
 5085SOL    HW115498   1.940   4.980   5.068
 5085SOL    HW215499   1.914   5.125   5.033
 5086SOL     OW15500   2.578   4.351   4.772
 5086SOL    HW115501   2.659   4.342   4.722
 5086SOL    HW215502   2.551   4.441   4.758
 5087SOL     OW15503   3.603   4.684   5.584
 5087SOL    HW115504   3.560   4.615   5.533
 5087SOL    HW215505   3.542   4.702   5.655
 5088SOL     OW15506   2.172   3.786   4.350
 5088SOL    HW115507   2.147   3.876   4.370
 5088SOL    HW215508   2.178   3.743   4.436
 5089SOL     OW15509   3.488   4.106   4.088
 5089SOL    HW115510   3.515   4.041   4.153
 5089SOL    HW215511   3.459   4.181   4.140
 5090SOL     OW15512   2.894   4.482   4.685
 5090SOL    HW115513   2.882   4.499   4.778
 5090SOL    HW215514   2.867   4.391   4.674
 5091SOL     OW15515   2.842   5.290   5.447
 5091SOL    HW115516   2.826   5.334   5.363
 5091SOL    HW215517   2.886   5.208   5.424
 5092SOL     OW15518   3.711   5.224   5.327
 5092SOL    HW115519   3.734   5.252   5.239
 5092SOL    HW215520   3.791   5.237   5.378
 5093SOL     OW15521   2.213   4.642   5.534
 5093SOL    HW115522   2.293   4.660   5.583
 5093SOL    HW215523   2.240   4.579   5.467
 5094SOL     OW15524   3.439   3.958   3.855
 5094SOL    HW115525   3.364   3.904   3.877
 5094SOL    HW215526   3.456   4.009   3.935
 5095SOL     OW15527   2.933   5.066   4.584
 5095SOL    HW115528   2.939   4.994   4.521
 5095SOL    HW215529   2.989   5.134   4.547
 5096SOL     OW15530   2.170   4.534   4.670
 5096SOL    HW115531   2.264   4.555   4.668
 5096SOL    HW215532   2.167   4.443   4.701
 5097SOL     OW15533   2.189   4.255   4.735
 5097SOL    HW115534   2.153   4.168   4.724
 5097SOL    HW215535   2.266   4.257   4.678
 5098SOL     OW15536   2.996   4.096   5.410
 5098SOL    HW115537   2.949   4.149   5.474
 5098SOL    HW215538   3.083   4.136   5.406
 5099SOL     OW15539   3.022   3.921   5.196
 5099SOL    HW115540   3.011   3.983   5.268
 5099SOL    HW215541   3.066   3.971   5.128
 5100SOL     OW15542   1.861   5.042   3.916
 5100SOL    HW115543   1.774   5.060   3.880
 5100SOL    HW215544   1.854   4.954   3.952
 5101SOL     OW15545   1.952   5.504   4.667
 5101SOL    HW115546   1.922   5.427   4.619
 5101SOL    HW215547   2.041   5.519   4.634
 5102SOL     OW15548   2.352   5.299   4.628
 5102SOL    HW115549   2.421   5.361   4.652
 5102SOL    HW215550   2.396   5.236   4.569
 5103SOL     OW15551   2.830   4.509   4.948
 5103SOL    HW115552   2.893   4.492   5.019
 5103SOL    HW215553   2.748   4.472   4.979
 5104SOL     OW15554   1.899   4.276   4.841
 5104SOL    HW115555   1.980   4.269   4.791
 5104SOL    HW215556   1.927   4.275   4.933
 5105SOL     OW15557   2.053   4.248   5.457
 5105SOL    HW115558   2.106   4.203   5.392
 5105SOL    HW215559   2.018   4.324   5.411
 5106SOL     OW15560   3.244   4.655   5.380
 5106SOL    HW115561   3.265   4.749   5.376
 5106SOL    HW215562   3.240   4.628   5.289
 5107SOL     OW15563   3.502   4.325   4.901
 5107SOL    HW115564   3.492   4.267   4.977
 5107SOL    HW215565   3.590   4.307   4.869
 5108SOL     OW15566   2.098   5.272   5.446
 5108SOL    HW115567   2.077   5.335   5.514
 5108SOL    HW215568   2.107   5.188   5.492
 5109SOL     OW15569   2.579   4.167   4.974
 5109SOL    HW115570   2.519   4.096   4.951
 5109SOL    HW215571   2.567   4.231   4.903
 5110SOL     OW15572   2.781   5.402   5.197
 5110SOL    HW115573   2.758   5.362   5.113
 5110SOL    HW215574   2.777   5.496   5.180
 5111SOL     OW15575   2.001   4.868   5.199
 5111SOL    HW115576   2.004   4.822   5.283
 5111SOL    HW215577   2.019   4.800   5.134
 5112SOL     OW15578   3.180   4.766   4.942
 5112SOL    HW115579   3.201   4.703   4.873
 5112SOL    HW215580   3.115   4.824   4.903
 5113SOL     OW15581   3.173   4.562   4.003
 5113SOL    HW115582   3.117   4.570   4.080
 5113SOL    HW215583   3.153   4.476   3.968
 5114SOL     OW15584   3.643   5.458   4.883
 5114SOL    HW115585   3.703   5.485   4.813
 5114SOL    HW215586   3.615   5.370   4.859
 5115SOL     OW15587   3.101   5.456   4.827
 5115SOL    HW115588   3.184   5.482   4.787
 5115SOL    HW215589   3.112   5.364   4.849
 5116SOL     OW15590   1.951   4.988   4.734
 5116SOL    HW115591   1.933   5.004   4.826
 5116SOL    HW215592   1.878   4.934   4.704
 5117SOL     OW15593   2.542   5.397   5.465
 5117SOL    HW115594   2.483   5.471   5.455
 5117SOL    HW215595   2.613   5.414   5.403
 5118SOL     OW15596   3.588   3.885   4.230
 5118SOL    HW115597   3.655   3.871   4.164
 5118SOL    HW215598   3.572   3.798   4.267
 5119SOL     OW15599   3.257   5.292   4.218
 5119SOL    HW115600   3.314   5.326   4.149
 5119SOL    HW215601   3.205   5.368   4.245
 5120SOL     OW15602   2.003   5.520   5.566
 5120SOL    HW115603   1.954   5.452   5.613
 5120SOL    HW215604   2.050   5.567   5.636
 5121SOL     OW15605   3.142   4.652   4.389
 5121SOL    HW115606   3.217   4.595   4.404
 5121SOL    HW215607   3.176   4.726   4.339
 5122SOL     OW15608   2.664   5.002   5.146
 5122SOL    HW115609   2.637   5.043   5.228
 5122SOL    HW215610   2.593   5.021   5.085
 5123SOL     OW15611   2.529   5.356   3.881
 5123SOL    HW115612   2.544   5.370   3.787
 5123SOL    HW215613   2.476   5.276   3.885
 5124SOL     OW15614   3.480   5.452   5.116
 5124SOL    HW115615   3.535   5.456   5.038
 5124SOL    HW215616   3.466   5.544   5.140
 5125SOL     OW15617   3.705   3.893   4.689
 5125SOL    HW115618   3.734   3.805   4.666
 5125SOL    HW215619   3.618   3.901   4.649
 5126SOL     OW15620   2.117   4.038   4.438
 5126SOL    HW115621   2.030   4.072   4.415
 5126SOL    HW215622   2.116   4.034   4.533
 5127SOL     OW15623   3.071   5.329   3.757
 5127SOL    HW115624   3.059   5.237   3.783
 5127SOL    HW215625   3.005   5.342   3.689
 5128SOL     OW15626   2.685   4.732   5.100
 5128SOL    HW115627   2.729   4.725   5.015
 5128SOL    HW215628   2.681   4.826   5.118
 5129SOL     OW15629   2.793   4.651   4.040
 5129SOL    HW115630   2.849   4.701   3.980
 5129SOL    HW215631   2.849   4.580   4.072
 5130SOL     OW15632   3.350   5.356   3.771
 5130SOL    HW115633   3.257   5.344   3.755
 5130SOL    HW215634   3.389   5.361   3.683
 5131SOL     OW15635   2.229   5.030   5.217
 5131SOL    HW115636   2.216   5.106   5.160
 5131SOL    HW215637   2.151   4.975   5.202
 5132SOL     OW15638   3.469   5.009   5.003
 5132SOL    HW115639   3.527   4.991   5.077
 5132SOL    HW215640   3.408   5.076   5.036
 5133SOL     OW15641   2.928   4.836   4.440
 5133SOL    HW115642   2.854   4.786   4.475
 5133SOL    HW215643   2.989   4.769   4.408
 5134SOL     OW15644   2.887   3.967   4.690
 5134SOL    HW115645   2.883   3.920   4.607
 5134SOL    HW215646   2.881   3.898   4.756
 5135SOL     OW15647   2.469   5.209   4.203
 5135SOL    HW115648   2.521   5.161   4.139
 5135SOL    HW215649   2.395   5.245   4.153
 5136SOL     OW15650   3.590   4.116   5.104
 5136SOL    HW115651   3.663   4.178   5.104
 5136SOL    HW215652   3.620   4.045   5.046
 5137SOL     OW15653   2.118   5.064   4.005
 5137SOL    HW115654   2.025   5.064   3.985
 5137SOL    HW215655   2.124   5.101   4.093
 5138SOL     OW15656   1.977   4.761   5.452
 5138SOL    HW115657   1.901   4.732   5.501
 5138SOL    HW215658   2.051   4.716   5.492
 5139SOL     OW15659   2.539   3.918   5.223
 5139SOL    HW115660   2.624   3.895   5.184
 5139SOL    HW215661   2.561   3.951   5.310
 5140SOL     OW15662   1.947   4.045   3.742
 5140SOL    HW115663   1.883   4.055   3.672
 5140SOL    HW215664   1.959   4.134   3.776
 5141SOL     OW15665   3.286   4.581   5.120
 5141SOL    HW115666   3.236   4.642   5.066
 5141SOL    HW215667   3.374   4.583   5.084
 5142SOL     OW15668   1.916   3.877   4.026
 5142SOL    HW115669   1.901   3.949   3.966
 5142SOL    HW215670   2.001   3.841   4.000
 5143SOL     OW15671   3.041   5.066   3.842
 5143SOL    HW115672   2.951   5.033   3.843
 5143SOL    HW215673   3.069   5.064   3.934
 5144SOL     OW15674   2.483   4.556   5.160
 5144SOL    HW115675   2.540   4.631   5.146
 5144SOL    HW215676   2.542   4.481   5.166
 5145SOL     OW15677   3.345   5.512   4.708
 5145SOL    HW115678   3.367   5.579   4.644
 5145SOL    HW215679   3.430   5.482   4.742
 5146SOL     OW15680   2.581   4.282   5.422
 5146SOL    HW115681   2.626   4.340   5.483
 5146SOL    HW215682   2.597   4.194   5.456
 5147SOL     OW15683   3.336   4.917   5.351
 5147SOL    HW115684   3.324   4.932   5.445
 5147SOL    HW215685   3.428   4.937   5.335
 5148SOL     OW15686   2.230   5.466   5.291
 5148SOL    HW115687   2.148   5.512   5.275
 5148SOL    HW215688   2.204   5.383   5.331
 5149SOL     OW15689   3.524   4.603   4.979
 5149SOL    HW115690   3.522   4.518   4.935
 5149SOL    HW215691   3.515   4.666   4.908
 5150SOL     OW15692   3.075   4.036   4.195
 5150SOL    HW115693   3.140   3.966   4.183
 5150SOL    HW215694   3.109   4.088   4.267
 5151SOL     OW15695   2.460   4.445   4.387
 5151SOL    HW115696   2.494   4.534   4.381
 5151SOL    HW215697   2.386   4.443   4.326
 5152SOL     OW15698   3.617   4.087   5.377
 5152SOL    HW115699   3.603   4.104   5.284
 5152SOL    HW215700   3.543   4.031   5.402
 5153SOL     OW15701   3.611   4.657   5.234
 5153SOL    HW115702   3.600   4.751   5.247
 5153SOL    HW215703   3.592   4.642   5.141
 5154SOL     OW15704   2.746   5.084   3.772
 5154SOL    HW115705   2.697   5.101   3.852
 5154SOL    HW215706   2.747   5.168   3.726
 5155SOL     OW15707   2.526   5.505   4.660
 5155SOL    HW115708   2.508   5.598   4.643
 5155SOL    HW215709   2.621   5.498   4.655
 5156SOL     OW15710   2.734   4.695   4.581
 5156SOL    HW115711   2.784   4.623   4.619
 5156SOL    HW215712   2.694   4.739   4.656
 5157SOL     OW15713   2.949   4.782   3.853
 5157SOL    HW115714   2.882   4.787   3.786
 5157SOL    HW215715   3.023   4.739   3.810
 5158SOL     OW15716   3.707   5.276   4.564
 5158SOL    HW115717   3.627   5.265   4.512
 5158SOL    HW215718   3.697   5.215   4.637
 5159SOL     OW15719   2.087   5.021   5.575
 5159SOL    HW115720   2.030   4.952   5.539
 5159SOL    HW215721   2.056   5.033   5.665
 5160SOL     OW15722   1.955   4.952   4.388
 5160SOL    HW115723   1.966   4.908   4.473
 5160SOL    HW215724   2.022   4.913   4.332
 5161SOL     OW15725   2.547   5.134   5.355
 5161SOL    HW115726   2.469   5.091   5.390
 5161SOL    HW215727   2.546   5.222   5.393
 5162SOL     OW15728   3.672   3.905   4.959
 5162SOL    HW115729   3.679   3.810   4.973
 5162SOL    HW215730   3.684   3.916   4.865
 5163SOL     OW15731   2.294   4.155   4.252
 5163SOL    HW115732   2.325   4.081   4.200
 5163SOL    HW215733   2.240   4.115   4.320
 5164SOL     OW15734   3.559   5.209   4.813
 5164SOL    HW115735   3.480   5.190   4.764
 5164SOL    HW215736   3.563   5.140   4.880
 5165SOL     OW15737   2.200   4.285   5.017
 5165SOL    HW115738   2.252   4.227   5.071
 5165SOL    HW215739   2.216   4.255   4.927
 5166SOL     OW15740   2.696   5.304   4.398
 5166SOL    HW115741   2.674   5.370   4.332
 5166SOL    HW215742   2.620   5.245   4.398
 5167SOL     OW15743   3.290   3.955   4.840
 5167SOL    HW115744   3.310   3.871   4.882
 5167SOL    HW215745   3.240   4.003   4.906
 5168SOL     OW15746   2.871   3.740   4.857
 5168SOL    HW115747   2.816   3.674   4.815
 5168SOL    HW215748   2.958   3.701   4.859
 5169SOL     OW15749   2.638   5.062   4.040
 5169SOL    HW115750   2.607   4.972   4.052
 5169SOL    HW215751   2.721   5.065   4.088
 5170SOL     OW15752   2.481   5.281   5.012
 5170SOL    HW115753   2.481   5.363   5.060
 5170SOL    HW215754   2.570   5.274   4.976
 5171SOL     OW15755   3.222   3.777   3.900
 5171SOL    HW115756   3.258   3.711   3.841
 5171SOL    HW215757   3.134   3.747   3.919
 5172SOL     OW15758   3.161   4.190   4.404
 5172SOL    HW115759   3.110   4.271   4.409
 5172SOL    HW215760   3.155   4.153   4.492
 5173SOL     OW15761   3.446   3.917   4.608
 5173SOL    HW115762   3.391   3.944   4.682
 5173SOL    HW215763   3.446   3.993   4.550
 5174SOL     OW15764   1.894   4.800   4.047
 5174SOL    HW115765   1.987   4.809   4.067
 5174SOL    HW215766   1.877   4.706   4.053
 5175SOL     OW15767   2.752   5.387   4.061
 5175SOL    HW115768   2.677   5.371   4.004
 5175SOL    HW215769   2.724   5.459   4.118
 5176SOL     OW15770   2.082   4.348   5.718
 5176SOL    HW115771   1.993   4.342   5.754
 5176SOL    HW215772   2.072   4.326   5.626
 5177SOL     OW15773   2.083   4.015   6.582
 5177SOL    HW115774   2.116   3.974   6.662
 5177SOL    HW215775   1.995   3.978   6.571
 5178SOL     OW15776   1.859   4.109   6.226
 5178SOL    HW115777   1.778   4.138   6.269
 5178SOL    HW215778   1.833   4.032   6.176
 5179SOL     OW15779   2.423   5.012   6.759
 5179SOL    HW115780   2.339   5.030   6.715
 5179SOL    HW215781   2.445   5.093   6.803
 5180SOL     OW15782   3.435   5.239   6.295
 5180SOL    HW115783   3.389   5.217   6.376
 5180SOL    HW215784   3.367   5.243   6.228
 5181SOL     OW15785   2.994   4.423   6.281
 5181SOL    HW115786   3.041   4.505   6.270
 5181SOL    HW215787   2.945   4.434   6.362
 5182SOL     OW15788   3.643   4.320   5.810
 5182SOL    HW115789   3.615   4.316   5.719
 5182SOL    HW215790   3.602   4.245   5.852
 5183SOL     OW15791   2.621   4.865   6.635
 5183SOL    HW115792   2.551   4.893   6.695
 5183SOL    HW215793   2.647   4.944   6.589
 5184SOL     OW15794   2.547   4.720   6.230
 5184SOL    HW115795   2.614   4.713   6.298
 5184SOL    HW215796   2.479   4.775   6.267
 5185SOL     OW15797   2.195   5.131   6.645
 5185SOL    HW115798   2.117   5.094   6.603
 5185SOL    HW215799   2.235   5.187   6.578
 5186SOL     OW15800   3.465   4.167   6.332
 5186SOL    HW115801   3.394   4.182   6.270
 5186SOL    HW215802   3.457   4.238   6.395
 5187SOL     OW15803   2.081   5.441   6.053
 5187SOL    HW115804   2.103   5.515   6.109
 5187SOL    HW215805   2.156   5.432   5.994
 5188SOL     OW15806   2.096   5.170   6.123
 5188SOL    HW115807   2.075   5.263   6.124
 5188SOL    HW215808   2.038   5.131   6.189
 5189SOL     OW15809   2.130   4.817   6.481
 5189SOL    HW115810   2.126   4.729   6.518
 5189SOL    HW215811   2.073   4.869   6.538
 5190SOL     OW15812   2.474   5.530   6.980
 5190SOL    HW115813   2.390   5.507   0.019
 5190SOL    HW215814   2.495   5.616   0.015
 5191SOL     OW15815   2.438   4.709   5.727
 5191SOL    HW115816   2.488   4.753   5.658
 5191SOL    HW215817   2.478   4.741   5.809
 5192SOL     OW15818   1.981   4.381   6.148
 5192SOL    HW115819   1.950   4.293   6.169
 5192SOL    HW215820   1.973   4.429   6.230
 5193SOL     OW15821   3.705   5.476   5.915
 5193SOL    HW115822   3.775   5.451   5.976
 5193SOL    HW215823   3.722   5.568   5.896
 5194SOL     OW15824   1.903   5.313   5.705
 5194SOL    HW115825   1.884   5.221   5.725
 5194SOL    HW215826   1.876   5.361   5.784
 5195SOL     OW15827   3.553   4.643   6.231
 5195SOL    HW115828   3.633   4.597   6.205
 5195SOL    HW215829   3.530   4.695   6.154
 5196SOL     OW15830   3.513   4.827   6.016
 5196SOL    HW115831   3.599   4.826   5.975
 5196SOL    HW215832   3.520   4.891   6.087
 5197SOL     OW15833   2.477   5.115   6.320
 5197SOL    HW115834   2.433   5.031   6.329
 5197SOL    HW215835   2.461   5.142   6.230
 5198SOL     OW15836   2.684   3.730   6.100
 5198SOL    HW115837   2.724   3.813   6.076
 5198SOL    HW215838   2.590   3.749   6.104
 5199SOL     OW15839   2.055   4.700   6.846
 5199SOL    HW115840   2.133   4.647   6.828
 5199SOL    HW215841   1.982   4.645   6.819
 5200SOL     OW15842   3.393   4.725   5.786
 5200SOL    HW115843   3.324   4.668   5.819
 5200SOL    HW215844   3.437   4.758   5.865
 5201SOL     OW15845   3.314   5.148   6.527
 5201SOL    HW115846   3.258   5.157   6.605
 5201SOL    HW215847   3.307   5.055   6.504
 5202SOL     OW15848   3.512   5.484   6.161
 5202SOL    HW115849   3.495   5.447   6.075
 5202SOL    HW215850   3.498   5.411   6.222
 5203SOL     OW15851   2.456   4.438   5.857
 5203SOL    HW115852   2.459   4.523   5.813
 5203SOL    HW215853   2.391   4.450   5.926
 5204SOL     OW15854   3.137   4.090   6.518
 5204SOL    HW115855   3.049   4.055   6.528
 5204SOL    HW215856   3.190   4.039   6.579
 5205SOL     OW15857   3.440   5.397   5.897
 5205SOL    HW115858   3.532   5.421   5.889
 5205SOL    HW215859   3.411   5.381   5.807
 5206SOL     OW15860   2.660   4.330   0.054
 5206SOL    HW115861   2.593   4.371   0.109
 5206SOL    HW215862   2.610   4.279   6.990
 5207SOL     OW15863   2.861   4.120   6.798
 5207SOL    HW115864   2.783   4.162   6.834
 5207SOL    HW215865   2.828   4.071   6.722
 5208SOL     OW15866   2.917   4.422   6.010
 5208SOL    HW115867   2.936   4.416   6.103
 5208SOL    HW215868   2.833   4.377   5.999
 5209SOL     OW15869   1.952   4.544   6.366
 5209SOL    HW115870   2.033   4.539   6.417
 5209SOL    HW215871   1.907   4.621   6.400
 5210SOL     OW15872   2.004   5.554   0.127
 5210SOL    HW115873   1.947   5.517   0.194
 5210SOL    HW215874   1.946   5.569   0.052
 5211SOL     OW15875   2.762   4.075   5.782
 5211SOL    HW115876   2.802   4.138   5.723
 5211SOL    HW215877   2.769   3.991   5.737
 5212SOL     OW15878   3.244   4.866   6.124
 5212SOL    HW115879   3.324   4.855   6.073
 5212SOL    HW215880   3.191   4.928   6.074
 5213SOL     OW15881   2.412   3.898   6.484
 5213SOL    HW115882   2.417   3.930   6.574
 5213SOL    HW215883   2.413   3.977   6.430
 5214SOL     OW15884   2.860   5.169   6.053
 5214SOL    HW115885   2.831   5.244   6.002
 5214SOL    HW215886   2.835   5.190   6.143
 5215SOL     OW15887   2.216   5.540   6.458
 5215SOL    HW115888   2.260   5.456   6.464
 5215SOL    HW215889   2.285   5.604   6.476
 5216SOL     OW15890   3.666   4.774   6.455
 5216SOL    HW115891   3.616   4.753   6.377
 5216SOL    HW215892   3.602   4.775   6.526
 5217SOL     OW15893   2.174   4.685   5.842
 5217SOL    HW115894   2.257   4.704   5.798
 5217SOL    HW215895   2.146   4.601   5.805
 5218SOL     OW15896   3.343   4.476   6.304
 5218SOL    HW115897   3.341   4.434   6.389
 5218SOL    HW215898   3.422   4.530   6.306
 5219SOL     OW15899   2.988   5.502   5.814
 5219SOL    HW115900   2.911   5.464   5.856
 5219SOL    HW215901   3.012   5.438   5.746
 5220SOL     OW15902   3.491   5.106   5.678
 5220SOL    HW115903   3.449   5.191   5.663
 5220SOL    HW215904   3.423   5.043   5.656
 5221SOL     OW15905   2.324   5.461   5.904
 5221SOL    HW115906   2.370   5.516   5.968
 5221SOL    HW215907   2.393   5.425   5.849
 5222SOL     OW15908   3.261   3.831   6.029
 5222SOL    HW115909   3.255   3.805   5.937
 5222SOL    HW215910   3.356   3.834   6.046
 5223SOL     OW15911   2.122   5.519   6.810
 5223SOL    HW115912   2.163   5.449   6.861
 5223SOL    HW215913   2.111   5.482   6.723
 5224SOL     OW15914   2.804   5.421   6.479
 5224SOL    HW115915   2.887   5.375   6.494
 5224SOL    HW215916   2.761   5.371   6.409
 5225SOL     OW15917   2.259   4.418   6.058
 5225SOL    HW115918   2.275   4.324   6.072
 5225SOL    HW215919   2.165   4.429   6.074
 5226SOL     OW15920   2.509   3.840   5.687
 5226SOL    HW115921   2.566   3.766   5.708
 5226SOL    HW215922   2.455   3.810   5.615
 5227SOL     OW15923   2.724   5.242   6.766
 5227SOL    HW115924   2.710   5.210   6.677
 5227SOL    HW215925   2.765   5.169   6.812
 5228SOL     OW15926   2.679   5.111   6.524
 5228SOL    HW115927   2.764   5.102   6.481
 5228SOL    HW215928   2.617   5.118   6.452
 5229SOL     OW15929   2.792   4.235   6.484
 5229SOL    HW115930   2.766   4.225   6.392
 5229SOL    HW215931   2.825   4.148   6.509
 5230SOL     OW15932   2.416   3.788   6.081
 5230SOL    HW115933   2.337   3.787   6.134
 5230SOL    HW215934   2.407   3.864   6.024
 5231SOL     OW15935   3.290   4.925   5.624
 5231SOL    HW115936   3.320   4.851   5.676
 5231SOL    HW215937   3.205   4.948   5.661
 5232SOL     OW15938   2.151   3.772   5.772
 5232SOL    HW115939   2.208   3.837   5.731
 5232SOL    HW215940   2.210   3.711   5.815
 5233SOL     OW15941   2.805   3.975   6.041
 5233SOL    HW115942   2.782   4.013   5.956
 5233SOL    HW215943   2.900   3.989   6.048
 5234SOL     OW15944   3.076   5.301   6.383
 5234SOL    HW115945   3.092   5.366   6.315
 5234SOL    HW215946   3.155   5.303   6.438
 5235SOL     OW15947   2.335   4.878   6.312
 5235SOL    HW115948   2.269   4.858   6.378
 5235SOL    HW215949   2.289   4.865   6.229
 5236SOL     OW15950   3.124   5.516   6.200
 5236SOL    HW115951   3.173   5.578   6.146
 5236SOL    HW215952   3.054   5.568   6.239
 5237SOL     OW15953   2.887   4.256   5.613
 5237SOL    HW115954   2.843   4.339   5.594
 5237SOL    HW215955   2.951   4.277   5.680
 5238SOL     OW15956   2.424   3.949   6.758
 5238SOL    HW115957   2.465   3.871   6.794
 5238SOL    HW215958   2.333   3.944   6.787
 5239SOL     OW15959   2.727   4.182   6.223
 5239SOL    HW115960   2.686   4.237   6.157
 5239SOL    HW215961   2.751   4.102   6.175
 5240SOL     OW15962   2.881   3.774   6.326
 5240SOL    HW115963   2.820   3.767   6.252
 5240SOL    HW215964   2.857   3.702   6.384
 5241SOL     OW15965   3.297   4.883   6.441
 5241SOL    HW115966   3.232   4.812   6.441
 5241SOL    HW215967   3.322   4.893   6.349
 5242SOL     OW15968   3.328   4.334   6.545
 5242SOL    HW115969   3.270   4.259   6.556
 5242SOL    HW215970   3.387   4.329   6.621
 5243SOL     OW15971   3.701   4.533   5.971
 5243SOL    HW115972   3.760   4.485   6.030
 5243SOL    HW215973   3.678   4.470   5.903
 5244SOL     OW15974   2.351   5.147   5.737
 5244SOL    HW115975   2.275   5.118   5.788
 5244SOL    HW215976   2.348   5.094   5.657
 5245SOL     OW15977   3.541   4.989   6.227
 5245SOL    HW115978   3.636   4.987   6.242
 5245SOL    HW215979   3.515   5.078   6.249
 5246SOL     OW15980   3.255   4.297   5.657
 5246SOL    HW115981   3.194   4.275   5.727
 5246SOL    HW215982   3.340   4.267   5.689
 5247SOL     OW15983   2.387   3.986   5.895
 5247SOL    HW115984   2.438   3.942   5.827
 5247SOL    HW215985   2.359   4.068   5.855
 5248SOL     OW15986   3.622   4.897   0.163
 5248SOL    HW115987   3.716   4.893   0.142
 5248SOL    HW215988   3.596   4.986   0.139
 5249SOL     OW15989   2.976   4.963   6.693
 5249SOL    HW115990   2.898   4.912   6.714
 5249SOL    HW215991   2.964   4.990   6.602
 5250SOL     OW15992   3.477   4.806   6.647
 5250SOL    HW115993   3.475   4.876   6.712
 5250SOL    HW215994   3.405   4.825   6.588
 5251SOL     OW15995   2.573   4.787   5.957
 5251SOL    HW115996   2.558   4.766   6.049
 5251SOL    HW215997   2.648   4.733   5.932
 5252SOL     OW15998   2.288   4.539   6.849
 5252SOL    HW115999   2.337   4.561   6.928
 5252SOL    HW216000   2.255   4.450   6.865
 5253SOL     OW16001   3.128   4.115   6.856
 5253SOL    HW116002   3.153   4.188   6.913
 5253SOL    HW216003   3.037   4.134   6.832
 5254SOL     OW16004   1.929   5.303   6.942
 5254SOL    HW116005   1.901   5.370   6.881
 5254SOL    HW216006   2.024   5.297   6.929
 5255SOL     OW16007   2.195   4.845   6.075
 5255SOL    HW116008   2.198   4.919   6.014
 5255SOL    HW216009   2.194   4.767   6.020
 5256SOL     OW16010   2.408   4.255   6.445
 5256SOL    HW116011   2.421   4.314   6.370
 5256SOL    HW216012   2.477   4.279   6.506
 5257SOL     OW16013   3.109   5.075   5.977
 5257SOL    HW116014   3.165   5.145   6.009
 5257SOL    HW216015   3.022   5.096   6.010
 5258SOL     OW16016   3.149   5.169   6.750
 5258SOL    HW116017   3.186   5.144   6.835
 5258SOL    HW216018   3.084   5.101   6.731
 5259SOL     OW16019   3.438   4.343   6.070
 5259SOL    HW116020   3.388   4.388   6.138
 5259SOL    HW216021   3.482   4.413   6.022
 5260SOL     OW16022   2.198   5.258   6.882
 5260SOL    HW116023   2.188   5.203   6.804
 5260SOL    HW216024   2.293   5.267   6.892
 5261SOL     OW16025   2.447   4.596   6.623
 5261SOL    HW116026   2.478   4.686   6.624
 5261SOL    HW216027   2.392   4.589   6.701
 5262SOL     OW16028   3.201   4.584   6.591
 5262SOL    HW116029   3.115   4.559   6.556
 5262SOL    HW216030   3.253   4.504   6.585
 5263SOL     OW16031   3.060   4.250   5.846
 5263SOL    HW116032   3.069   4.172   5.901
 5263SOL    HW216033   3.018   4.315   5.904
 5264SOL     OW16034   2.164   3.921   6.836
 5264SOL    HW116035   2.120   3.947   6.917
 5264SOL    HW216036   2.148   3.827   6.830
 5265SOL     OW16037   1.893   5.039   6.869
 5265SOL    HW116038   1.936   4.984   6.935
 5265SOL    HW216039   1.902   5.128   6.903
 5266SOL     OW16040   2.582   4.348   6.637
 5266SOL    HW116041   2.660   4.336   6.583
 5266SOL    HW216042   2.556   4.439   6.621
 5267SOL     OW16043   2.173   3.785   6.210
 5267SOL    HW116044   2.147   3.875   6.231
 5267SOL    HW216045   2.180   3.742   6.296
 5268SOL     OW16046   3.487   4.106   5.943
 5268SOL    HW116047   3.514   4.039   6.006
 5268SOL    HW216048   3.461   4.181   5.996
 5269SOL     OW16049   2.889   4.484   6.552
 5269SOL    HW116050   2.881   4.499   6.646
 5269SOL    HW216051   2.865   4.392   6.540
 5270SOL     OW16052   3.387   3.996   5.711
 5270SOL    HW116053   3.325   3.930   5.741
 5270SOL    HW216054   3.423   4.033   5.791
 5271SOL     OW16055   3.147   4.548   5.613
 5271SOL    HW116056   3.190   4.462   5.618
 5271SOL    HW216057   3.180   4.586   5.532
 5272SOL     OW16058   2.933   5.064   6.440
 5272SOL    HW116059   2.939   4.992   6.377
 5272SOL    HW216060   2.988   5.133   6.403
 5273SOL     OW16061   2.174   4.533   6.532
 5273SOL    HW116062   2.267   4.554   6.525
 5273SOL    HW216063   2.172   4.442   6.561
 5274SOL     OW16064   2.195   4.256   6.606
 5274SOL    HW116065   2.157   4.170   6.590
 5274SOL    HW216066   2.271   4.260   6.547
 5275SOL     OW16067   3.004   3.968   0.061
 5275SOL    HW116068   3.084   3.962   0.113
 5275SOL    HW216069   3.032   4.008   6.978
 5276SOL     OW16070   1.871   5.039   5.779
 5276SOL    HW116071   1.784   5.056   5.744
 5276SOL    HW216072   1.866   4.950   5.814
 5277SOL     OW16073   1.951   5.509   6.525
 5277SOL    HW116074   1.921   5.431   6.478
 5277SOL    HW216075   2.041   5.522   6.495
 5278SOL     OW16076   2.352   5.300   6.488
 5278SOL    HW116077   2.422   5.361   6.513
 5278SOL    HW216078   2.395   5.237   6.431
 5279SOL     OW16079   2.839   4.511   6.824
 5279SOL    HW116080   2.913   4.482   6.878
 5279SOL    HW216081   2.762   4.473   6.866
 5280SOL     OW16082   1.916   4.280   6.719
 5280SOL    HW116083   1.963   4.249   6.642
 5280SOL    HW216084   1.985   4.310   6.779
 5281SOL     OW16085   2.679   4.294   5.955
 5281SOL    HW116086   2.686   4.220   5.894
 5281SOL    HW216087   2.605   4.345   5.923
 5282SOL     OW16088   3.510   4.335   6.751
 5282SOL    HW116089   3.497   4.280   6.828
 5282SOL    HW216090   3.602   4.322   6.727
 5283SOL     OW16091   2.543   4.187   6.852
 5283SOL    HW116092   2.505   4.105   6.819
 5283SOL    HW216093   2.550   4.242   6.774
 5284SOL     OW16094   2.807   5.385   6.996
 5284SOL    HW116095   2.774   5.373   6.907
 5284SOL    HW216096   2.784   5.476   0.018
 5285SOL     OW16097   2.319   4.215   5.763
 5285SOL    HW116098   2.379   4.284   5.789
 5285SOL    HW216099   2.234   4.258   5.756
 5286SOL     OW16100   2.018   4.871   0.053
 5286SOL    HW116101   2.071   4.832   0.122
 5286SOL    HW216102   2.029   4.812   6.978
 5287SOL     OW16103   3.137   4.726   6.817
 5287SOL    HW116104   3.171   4.679   6.741
 5287SOL    HW216105   3.121   4.815   6.787
 5288SOL     OW16106   3.179   4.582   5.888
 5288SOL    HW116107   3.106   4.548   5.941
 5288SOL    HW216108   3.152   4.567   5.797
 5289SOL     OW16109   3.613   5.488   6.721
 5289SOL    HW116110   3.688   5.503   6.663
 5289SOL    HW216111   3.597   5.394   6.716
 5290SOL     OW16112   3.109   5.447   6.701
 5290SOL    HW116113   3.190   5.472   6.656
 5290SOL    HW216114   3.119   5.353   6.719
 5291SOL     OW16115   1.945   4.994   6.601
 5291SOL    HW116116   1.926   5.005   6.694
 5291SOL    HW216117   1.878   4.933   6.570
 5292SOL     OW16118   3.585   3.884   6.089
 5292SOL    HW116119   3.655   3.866   6.026
 5292SOL    HW216120   3.568   3.799   6.130
 5293SOL     OW16121   3.255   5.292   6.079
 5293SOL    HW116122   3.313   5.326   6.011
 5293SOL    HW216123   3.204   5.368   6.107
 5294SOL     OW16124   3.139   4.653   6.257
 5294SOL    HW116125   3.213   4.593   6.267
 5294SOL    HW216126   3.174   4.724   6.202
 5295SOL     OW16127   2.530   5.351   5.742
 5295SOL    HW116128   2.543   5.366   5.649
 5295SOL    HW216129   2.474   5.273   5.747
 5296SOL     OW16130   3.704   3.899   6.560
 5296SOL    HW116131   3.734   3.811   6.537
 5296SOL    HW216132   3.617   3.906   6.522
 5297SOL     OW16133   2.116   4.036   6.300
 5297SOL    HW116134   2.030   4.070   6.276
 5297SOL    HW216135   2.116   4.034   6.396
 5298SOL     OW16136   3.070   5.324   5.620
 5298SOL    HW116137   3.059   5.232   5.646
 5298SOL    HW216138   3.004   5.338   5.552
 5299SOL     OW16139   2.635   4.748   6.958
 5299SOL    HW116140   2.693   4.705   6.894
 5299SOL    HW216141   2.685   4.823   6.989
 5300SOL     OW16142   2.779   4.635   5.878
 5300SOL    HW116143   2.839   4.668   5.811
 5300SOL    HW216144   2.830   4.567   5.923
 5301SOL     OW16145   3.350   5.355   5.632
 5301SOL    HW116146   3.256   5.343   5.616
 5301SOL    HW216147   3.388   5.360   5.545
 5302SOL     OW16148   3.472   5.010   6.827
 5302SOL    HW116149   3.557   5.006   6.871
 5302SOL    HW216150   3.409   4.987   6.896
 5303SOL     OW16151   2.925   4.834   6.298
 5303SOL    HW116152   2.852   4.783   6.333
 5303SOL    HW216153   2.990   4.768   6.272
 5304SOL     OW16154   2.882   3.964   6.542
 5304SOL    HW116155   2.882   3.917   6.458
 5304SOL    HW216156   2.882   3.896   6.608
 5305SOL     OW16157   2.468   5.212   6.066
 5305SOL    HW116158   2.519   5.162   6.002
 5305SOL    HW216159   2.392   5.243   6.017
 5306SOL     OW16160   3.558   4.150   6.948
 5306SOL    HW116161   3.620   4.149   0.021
 5306SOL    HW216162   3.558   4.060   6.915
 5307SOL     OW16163   2.126   5.065   5.880
 5307SOL    HW116164   2.034   5.061   5.854
 5307SOL    HW216165   2.125   5.107   5.967
 5308SOL     OW16166   2.541   3.909   0.088
 5308SOL    HW116167   2.628   3.870   0.080
 5308SOL    HW216168   2.558   3.997   0.121
 5309SOL     OW16169   1.944   4.050   5.616
 5309SOL    HW116170   1.858   4.032   5.579
 5309SOL    HW216171   1.973   4.129   5.571
 5310SOL     OW16172   1.922   3.877   5.885
 5310SOL    HW116173   1.910   3.955   5.831
 5310SOL    HW216174   2.007   3.843   5.858
 5311SOL     OW16175   3.040   5.057   5.704
 5311SOL    HW116176   2.950   5.025   5.706
 5311SOL    HW216177   3.067   5.059   5.796
 5312SOL     OW16178   3.352   5.509   6.579
 5312SOL    HW116179   3.368   5.574   6.510
 5312SOL    HW216180   3.438   5.494   6.618
 5313SOL     OW16181   3.358   5.024   0.282
 5313SOL    HW116182   3.269   5.024   0.317
 5313SOL    HW216183   3.375   4.932   0.261
 5314SOL     OW16184   2.253   5.456   0.102
 5314SOL    HW116185   2.166   5.496   0.113
 5314SOL    HW216186   2.242   5.366   0.135
 5315SOL     OW16187   3.565   4.605   6.831
 5315SOL    HW116188   3.532   4.520   6.801
 5315SOL    HW216189   3.529   4.667   6.768
 5316SOL     OW16190   3.078   4.044   6.042
 5316SOL    HW116191   3.139   3.970   6.037
 5316SOL    HW216192   3.107   4.094   6.118
 5317SOL     OW16193   2.446   4.458   6.261
 5317SOL    HW116194   2.487   4.543   6.246
 5317SOL    HW216195   2.383   4.449   6.189
 5318SOL     OW16196   3.628   4.622   0.102
 5318SOL    HW116197   3.622   4.715   0.121
 5318SOL    HW216198   3.607   4.615   0.009
 5319SOL     OW16199   2.725   5.088   5.631
 5319SOL    HW116200   2.688   5.116   5.715
 5319SOL    HW216201   2.741   5.170   5.584
 5320SOL     OW16202   2.528   5.505   6.527
 5320SOL    HW116203   2.509   5.597   6.506
 5320SOL    HW216204   2.623   5.498   6.521
 5321SOL     OW16205   2.732   4.695   6.440
 5321SOL    HW116206   2.780   4.622   6.479
 5321SOL    HW216207   2.694   4.741   6.515
 5322SOL     OW16208   2.938   4.713   5.675
 5322SOL    HW116209   2.918   4.764   5.597
 5322SOL    HW216210   3.012   4.658   5.648
 5323SOL     OW16211   3.711   5.279   6.427
 5323SOL    HW116212   3.629   5.267   6.377
 5323SOL    HW216213   3.698   5.226   6.505
 5324SOL     OW16214   1.953   4.953   6.252
 5324SOL    HW116215   1.958   4.905   6.334
 5324SOL    HW216216   2.020   4.914   6.197
 5325SOL     OW16217   3.672   3.893   6.837
 5325SOL    HW116218   3.644   3.802   6.830
 5325SOL    HW216219   3.686   3.920   6.746
 5326SOL     OW16220   2.289   4.156   6.111
 5326SOL    HW116221   2.321   4.086   6.054
 5326SOL    HW216222   2.239   4.111   6.179
 5327SOL     OW16223   3.542   5.227   6.668
 5327SOL    HW116224   3.466   5.210   6.613
 5327SOL    HW216225   3.543   5.156   6.731
 5328SOL     OW16226   2.178   4.277   6.879
 5328SOL    HW116227   2.241   4.219   6.922
 5328SOL    HW216228   2.193   4.264   6.786
 5329SOL     OW16229   2.694   5.304   6.257
 5329SOL    HW116230   2.673   5.372   6.193
 5329SOL    HW216231   2.618   5.246   6.256
 5330SOL     OW16232   3.294   3.963   6.702
 5330SOL    HW116233   3.316   3.882   6.749
 5330SOL    HW216234   3.245   4.015   6.765
 5331SOL     OW16235   2.879   3.739   6.703
 5331SOL    HW116236   2.827   3.671   6.661
 5331SOL    HW216237   2.964   3.698   6.718
 5332SOL     OW16238   2.637   5.058   5.909
 5332SOL    HW116239   2.611   4.966   5.916
 5332SOL    HW216240   2.719   5.064   5.958
 5333SOL     OW16241   2.473   5.282   6.864
 5333SOL    HW116242   2.474   5.374   6.890
 5333SOL    HW216243   2.559   5.268   6.824
 5334SOL     OW16244   3.222   3.774   5.760
 5334SOL    HW116245   3.257   3.702   5.707
 5334SOL    HW216246   3.132   3.748   5.779
 5335SOL     OW16247   3.158   4.188   6.263
 5335SOL    HW116248   3.106   4.268   6.267
 5335SOL    HW216249   3.152   4.151   6.351
 5336SOL     OW16250   3.447   3.920   6.472
 5336SOL    HW116251   3.390   3.945   6.544
 5336SOL    HW216252   3.446   3.996   6.413
 5337SOL     OW16253   1.904   4.788   5.895
 5337SOL    HW116254   1.998   4.779   5.876
 5337SOL    HW216255   1.876   4.699   5.916
 5338SOL     OW16256   2.752   5.387   5.922
 5338SOL    HW116257   2.676   5.371   5.866
 5338SOL    HW216258   2.724   5.458   5.979
 5339SOL     OW16259   2.082   6.231   0.139
 5339SOL    HW116260   1.991   6.215   0.162
 5339SOL    HW216261   2.088   6.210   0.046
 5340SOL     OW16262   2.087   5.871   0.993
 5340SOL    HW116263   2.115   5.836   1.077
 5340SOL    HW216264   1.998   5.838   0.982
 5341SOL     OW16265   1.859   5.975   0.641
 5341SOL    HW116266   1.779   6.004   0.685
 5341SOL    HW216267   1.834   5.896   0.594
 5342SOL     OW16268   2.428   6.878   1.183
 5342SOL    HW116269   2.360   6.903   1.119
 5342SOL    HW216270   2.384   6.884   1.268
 5343SOL     OW16271   3.406   0.052   0.690
 5343SOL    HW116272   3.394   0.047   0.784
 5343SOL    HW216273   3.322   0.085   0.657
 5344SOL     OW16274   2.992   6.282   0.694
 5344SOL    HW116275   3.040   6.363   0.684
 5344SOL    HW216276   2.944   6.292   0.777
 5345SOL     OW16277   3.647   6.173   0.208
 5345SOL    HW116278   3.584   6.199   0.141
 5345SOL    HW216279   3.601   6.106   0.259
 5346SOL     OW16280   2.626   6.749   1.030
 5346SOL    HW116281   2.562   6.787   1.090
 5346SOL    HW216282   2.615   6.799   0.949
 5347SOL     OW16283   2.742   6.345   1.827
 5347SOL    HW116284   2.724   6.413   1.892
 5347SOL    HW216285   2.763   6.393   1.747
 5348SOL     OW16286   2.550   6.576   0.644
 5348SOL    HW116287   2.617   6.570   0.713
 5348SOL    HW216288   2.481   6.630   0.682
 5349SOL     OW16289   2.556   6.732   1.813
 5349SOL    HW116290   2.587   6.820   1.834
 5349SOL    HW216291   2.492   6.746   1.743
 5350SOL     OW16292   2.203   0.003   1.057
 5350SOL    HW116293   2.126   6.963   1.016
 5350SOL    HW216294   2.243   0.054   0.987
 5351SOL     OW16295   2.314   5.976   1.474
 5351SOL    HW116296   2.390   5.919   1.485
 5351SOL    HW216297   2.239   5.922   1.497
 5352SOL     OW16298   3.467   6.031   0.750
 5352SOL    HW116299   3.399   6.052   0.686
 5352SOL    HW216300   3.466   6.104   0.811
 5353SOL     OW16301   2.118   6.678   0.894
 5353SOL    HW116302   2.115   6.590   0.931
 5353SOL    HW216303   2.062   6.730   0.952
 5354SOL     OW16304   2.449   6.542   0.138
 5354SOL    HW116305   2.513   6.555   0.068
 5354SOL    HW216306   2.485   6.588   0.213
 5355SOL     OW16307   3.457   5.715   1.463
 5355SOL    HW116308   3.484   5.794   1.417
 5355SOL    HW216309   3.435   5.744   1.551
 5356SOL     OW16310   1.980   6.238   0.559
 5356SOL    HW116311   1.950   6.151   0.584
 5356SOL    HW216312   1.973   6.290   0.639
 5357SOL     OW16313   3.552   6.490   0.649
 5357SOL    HW116314   3.638   6.452   0.634
 5357SOL    HW216315   3.535   6.542   0.570
 5358SOL     OW16316   3.513   6.676   0.441
 5358SOL    HW116317   3.588   6.685   0.381
 5358SOL    HW216318   3.534   6.733   0.514
 5359SOL     OW16319   1.991   6.331   1.583
 5359SOL    HW116320   2.083   6.358   1.586
 5359SOL    HW216321   1.943   6.413   1.594
 5360SOL     OW16322   3.166   6.812   1.435
 5360SOL    HW116323   3.201   6.752   1.369
 5360SOL    HW216324   3.229   6.807   1.508
 5361SOL     OW16325   2.683   5.594   0.520
 5361SOL    HW116326   2.724   5.677   0.496
 5361SOL    HW216327   2.590   5.614   0.524
 5362SOL     OW16328   2.050   6.547   1.280
 5362SOL    HW116329   2.135   6.506   1.263
 5362SOL    HW216330   1.989   6.500   1.222
 5363SOL     OW16331   3.360   6.591   0.203
 5363SOL    HW116332   3.295   6.533   0.243
 5363SOL    HW216333   3.441   6.572   0.250
 5364SOL     OW16334   2.208   5.835   1.835
 5364SOL    HW116335   2.247   5.919   1.859
 5364SOL    HW216336   2.114   5.846   1.852
 5365SOL     OW16337   3.328   6.982   0.952
 5365SOL    HW116338   3.251   0.008   1.001
 5365SOL    HW216339   3.308   6.894   0.920
 5366SOL     OW16340   2.463   6.296   0.267
 5366SOL    HW116341   2.465   6.383   0.228
 5366SOL    HW216342   2.402   6.304   0.340
 5367SOL     OW16343   3.141   5.954   0.934
 5367SOL    HW116344   3.052   5.919   0.943
 5367SOL    HW216345   3.194   5.899   0.993
 5368SOL     OW16346   2.653   6.202   1.445
 5368SOL    HW116347   2.629   6.176   1.534
 5368SOL    HW216348   2.620   6.132   1.389
 5369SOL     OW16349   3.254   6.060   1.678
 5369SOL    HW116350   3.259   6.104   1.763
 5369SOL    HW216351   3.310   5.983   1.688
 5370SOL     OW16352   2.814   6.474   1.589
 5370SOL    HW116353   2.870   6.405   1.552
 5370SOL    HW216354   2.763   6.506   1.515
 5371SOL     OW16355   2.857   5.994   1.231
 5371SOL    HW116356   2.767   6.010   1.260
 5371SOL    HW216357   2.848   5.952   1.145
 5372SOL     OW16358   2.919   6.288   0.426
 5372SOL    HW116359   2.938   6.284   0.519
 5372SOL    HW216360   2.834   6.244   0.417
 5373SOL     OW16361   1.950   6.408   0.774
 5373SOL    HW116362   2.030   6.401   0.826
 5373SOL    HW216363   1.902   6.481   0.813
 5374SOL     OW16364   2.750   5.928   0.208
 5374SOL    HW116365   2.790   5.988   0.146
 5374SOL    HW216366   2.779   5.841   0.180
 5375SOL     OW16367   3.563   6.154   1.831
 5375SOL    HW116368   3.530   6.229   1.780
 5375SOL    HW216369   3.592   6.092   1.764
 5376SOL     OW16370   3.259   6.726   0.579
 5376SOL    HW116371   3.342   6.706   0.537
 5376SOL    HW216372   3.220   6.795   0.525
 5377SOL     OW16373   2.414   5.762   0.899
 5377SOL    HW116374   2.416   5.791   0.990
 5377SOL    HW216375   2.414   5.843   0.848
 5378SOL     OW16376   3.663   6.631   0.881
 5378SOL    HW116377   3.611   6.626   0.801
 5378SOL    HW216378   3.598   6.641   0.951
 5379SOL     OW16379   2.184   6.534   0.251
 5379SOL    HW116380   2.265   6.547   0.202
 5379SOL    HW216381   2.155   6.446   0.227
 5380SOL     OW16382   3.343   6.331   0.721
 5380SOL    HW116383   3.343   6.295   0.810
 5380SOL    HW216384   3.420   6.387   0.717
 5381SOL     OW16385   2.064   5.854   1.504
 5381SOL    HW116386   1.984   5.905   1.512
 5381SOL    HW216387   2.042   5.769   1.541
 5382SOL     OW16388   3.510   0.034   0.080
 5382SOL    HW116389   3.500   0.129   0.088
 5382SOL    HW216390   3.421   6.999   0.093
 5383SOL     OW16391   2.262   6.278   0.465
 5383SOL    HW116392   2.277   6.185   0.484
 5383SOL    HW216393   2.170   6.292   0.483
 5384SOL     OW16394   3.387   5.810   1.723
 5384SOL    HW116395   3.398   5.830   1.816
 5384SOL    HW216396   3.320   5.742   1.721
 5385SOL     OW16397   2.624   5.864   1.756
 5385SOL    HW116398   2.706   5.814   1.752
 5385SOL    HW216399   2.579   5.831   1.833
 5386SOL     OW16400   3.199   6.174   1.434
 5386SOL    HW116401   3.230   6.143   1.519
 5386SOL    HW216402   3.237   6.261   1.424
 5387SOL     OW16403   2.793   6.093   0.901
 5387SOL    HW116404   2.766   6.084   0.809
 5387SOL    HW216405   2.822   6.006   0.926
 5388SOL     OW16406   2.416   5.658   0.501
 5388SOL    HW116407   2.337   5.657   0.554
 5388SOL    HW216408   2.404   5.730   0.440
 5389SOL     OW16409   3.268   6.786   0.045
 5389SOL    HW116410   3.310   6.718   0.097
 5389SOL    HW216411   3.217   6.739   6.979
 5390SOL     OW16412   2.809   5.834   0.462
 5390SOL    HW116413   2.781   5.874   0.380
 5390SOL    HW216414   2.903   5.850   0.466
 5391SOL     OW16415   2.943   6.272   1.458
 5391SOL    HW116416   2.877   6.202   1.462
 5391SOL    HW216417   3.026   6.227   1.452
 5392SOL     OW16418   3.144   0.153   0.742
 5392SOL    HW116419   3.102   0.222   0.691
 5392SOL    HW216420   3.132   0.180   0.833
 5393SOL     OW16421   2.336   6.713   0.739
 5393SOL    HW116422   2.265   6.707   0.802
 5393SOL    HW216423   2.292   6.716   0.654
 5394SOL     OW16424   2.932   6.189   0.026
 5394SOL    HW116425   2.839   6.190   0.050
 5394SOL    HW216426   2.977   6.162   0.106
 5395SOL     OW16427   1.947   6.141   1.392
 5395SOL    HW116428   2.039   6.140   1.366
 5395SOL    HW216429   1.941   6.211   1.457
 5396SOL     OW16430   2.419   5.813   1.173
 5396SOL    HW116431   2.461   5.742   1.221
 5396SOL    HW216432   2.327   5.810   1.200
 5397SOL     OW16433   2.728   6.040   0.642
 5397SOL    HW116434   2.690   6.098   0.575
 5397SOL    HW216435   2.752   5.961   0.594
 5398SOL     OW16436   2.885   5.635   0.742
 5398SOL    HW116437   2.820   5.632   0.671
 5398SOL    HW216438   2.859   5.564   0.800
 5399SOL     OW16439   3.294   6.728   0.863
 5399SOL    HW116440   3.223   6.665   0.872
 5399SOL    HW216441   3.304   6.740   0.768
 5400SOL     OW16442   3.328   6.194   0.966
 5400SOL    HW116443   3.270   6.118   0.971
 5400SOL    HW216444   3.384   6.186   1.043
 5401SOL     OW16445   3.694   6.394   0.388
 5401SOL    HW116446   3.752   6.336   0.440
 5401SOL    HW216447   3.683   6.348   0.305
 5402SOL     OW16448   3.553   6.828   0.651
 5402SOL    HW116449   3.644   6.848   0.672
 5402SOL    HW216450   3.506   6.909   0.670
 5403SOL     OW16451   3.250   6.140   0.063
 5403SOL    HW116452   3.193   6.136   0.139
 5403SOL    HW216453   3.306   6.063   0.071
 5404SOL     OW16454   2.366   5.846   0.309
 5404SOL    HW116455   2.397   5.793   0.235
 5404SOL    HW216456   2.343   5.930   0.271
 5405SOL     OW16457   3.615   6.810   1.567
 5405SOL    HW116458   3.691   6.765   1.602
 5405SOL    HW216459   3.638   6.903   1.571
 5406SOL     OW16460   2.933   6.892   1.321
 5406SOL    HW116461   2.861   6.876   1.381
 5406SOL    HW216462   3.012   6.875   1.373
 5407SOL     OW16463   3.003   6.759   1.095
 5407SOL    HW116464   2.969   6.807   1.170
 5407SOL    HW216465   2.944   6.781   1.023
 5408SOL     OW16466   3.481   6.681   1.081
 5408SOL    HW116467   3.462   6.734   1.158
 5408SOL    HW216468   3.407   6.699   1.022
 5409SOL     OW16469   2.780   5.678   1.390
 5409SOL    HW116470   2.803   5.660   1.299
 5409SOL    HW216471   2.859   5.717   1.427
 5410SOL     OW16472   2.833   6.698   1.742
 5410SOL    HW116473   2.739   6.707   1.757
 5410SOL    HW216474   2.840   6.628   1.678
 5411SOL     OW16475   2.566   6.634   0.370
 5411SOL    HW116476   2.556   6.621   0.464
 5411SOL    HW216477   2.646   6.586   0.348
 5412SOL     OW16478   2.283   6.405   1.253
 5412SOL    HW116479   2.350   6.414   1.320
 5412SOL    HW216480   2.248   6.316   1.266
 5413SOL     OW16481   3.125   5.960   1.282
 5413SOL    HW116482   3.157   6.038   1.327
 5413SOL    HW216483   3.034   5.980   1.260
 5414SOL     OW16484   2.208   6.702   0.493
 5414SOL    HW116485   2.256   6.770   0.445
 5414SOL    HW216486   2.211   6.626   0.435
 5415SOL     OW16487   2.407   6.115   0.858
 5415SOL    HW116488   2.422   6.173   0.784
 5415SOL    HW216489   2.474   6.139   0.922
 5416SOL     OW16490   3.449   6.208   0.485
 5416SOL    HW116491   3.394   6.251   0.550
 5416SOL    HW216492   3.500   6.279   0.446
 5417SOL     OW16493   2.281   6.329   1.606
 5417SOL    HW116494   2.344   6.371   1.548
 5417SOL    HW216495   2.318   6.243   1.624
 5418SOL     OW16496   3.472   6.367   1.688
 5418SOL    HW116497   3.385   6.407   1.682
 5418SOL    HW216498   3.523   6.409   1.619
 5419SOL     OW16499   2.858   5.721   1.753
 5419SOL    HW116500   2.916   5.794   1.733
 5419SOL    HW216501   2.907   5.643   1.728
 5420SOL     OW16502   2.359   5.621   1.751
 5420SOL    HW116503   2.310   5.569   1.688
 5420SOL    HW216504   2.303   5.697   1.768
 5421SOL     OW16505   2.444   6.454   1.034
 5421SOL    HW116506   2.466   6.548   1.029
 5421SOL    HW216507   2.387   6.447   1.110
 5422SOL     OW16508   3.210   6.441   1.020
 5422SOL    HW116509   3.123   6.429   0.983
 5422SOL    HW216510   3.254   6.357   1.007
 5423SOL     OW16511   3.054   6.111   0.264
 5423SOL    HW116512   3.065   6.035   0.321
 5423SOL    HW216513   3.018   6.179   0.322
 5424SOL     OW16514   2.157   5.782   1.246
 5424SOL    HW116515   2.121   5.813   1.329
 5424SOL    HW216516   2.140   5.688   1.247
 5425SOL     OW16517   1.917   6.898   1.286
 5425SOL    HW116518   1.955   6.844   1.355
 5425SOL    HW216519   1.908   6.984   1.326
 5426SOL     OW16520   2.580   6.212   1.051
 5426SOL    HW116521   2.658   6.202   0.996
 5426SOL    HW216522   2.551   6.301   1.035
 5427SOL     OW16523   3.601   6.546   1.857
 5427SOL    HW116524   3.559   6.477   1.807
 5427SOL    HW216525   3.543   6.561   1.932
 5428SOL     OW16526   2.171   5.652   0.627
 5428SOL    HW116527   2.147   5.742   0.650
 5428SOL    HW216528   2.180   5.607   0.711
 5429SOL     OW16529   3.489   5.962   0.370
 5429SOL    HW116530   3.514   5.899   0.438
 5429SOL    HW216531   3.469   6.042   0.419
 5430SOL     OW16532   2.891   6.341   0.958
 5430SOL    HW116533   2.882   6.359   1.052
 5430SOL    HW216534   2.865   6.250   0.948
 5431SOL     OW16535   3.727   0.059   1.594
 5431SOL    HW116536   3.768   0.135   1.552
 5431SOL    HW216537   3.774   0.048   1.676
 5432SOL     OW16538   2.214   6.506   1.807
 5432SOL    HW116539   2.291   6.515   1.864
 5432SOL    HW216540   2.240   6.441   1.742
 5433SOL     OW16541   3.336   5.887   0.152
 5433SOL    HW116542   3.307   5.797   0.168
 5433SOL    HW216543   3.396   5.906   0.225
 5434SOL     OW16544   3.157   6.411   0.036
 5434SOL    HW116545   3.196   6.324   0.024
 5434SOL    HW216546   3.190   6.463   6.963
 5435SOL     OW16547   2.168   6.395   0.944
 5435SOL    HW116548   2.262   6.414   0.937
 5435SOL    HW216549   2.165   6.305   0.977
 5436SOL     OW16550   2.187   6.118   1.013
 5436SOL    HW116551   2.152   6.030   1.001
 5436SOL    HW216552   2.264   6.120   0.956
 5437SOL     OW16553   2.997   5.958   1.686
 5437SOL    HW116554   2.949   6.011   1.749
 5437SOL    HW216555   3.083   5.998   1.681
 5438SOL     OW16556   3.022   5.783   1.472
 5438SOL    HW116557   3.011   5.845   1.544
 5438SOL    HW216558   3.065   5.833   1.403
 5439SOL     OW16559   2.833   6.369   1.223
 5439SOL    HW116560   2.894   6.352   1.295
 5439SOL    HW216561   2.751   6.328   1.251
 5440SOL     OW16562   1.899   6.136   1.117
 5440SOL    HW116563   1.981   6.132   1.067
 5440SOL    HW216564   1.927   6.137   1.209
 5441SOL     OW16565   2.052   6.109   1.733
 5441SOL    HW116566   2.105   6.063   1.668
 5441SOL    HW216567   2.018   6.186   1.686
 5442SOL     OW16568   3.244   6.519   1.657
 5442SOL    HW116569   3.271   6.611   1.651
 5442SOL    HW216570   3.240   6.490   1.566
 5443SOL     OW16571   2.682   6.153   0.379
 5443SOL    HW116572   2.688   6.081   0.316
 5443SOL    HW216573   2.609   6.206   0.349
 5444SOL     OW16574   3.502   6.184   1.177
 5444SOL    HW116575   3.493   6.127   1.254
 5444SOL    HW216576   3.590   6.168   1.145
 5445SOL     OW16577   2.579   6.028   1.251
 5445SOL    HW116578   2.519   5.957   1.227
 5445SOL    HW216579   2.569   6.092   1.180
 5446SOL     OW16580   2.314   6.082   0.184
 5446SOL    HW116581   2.374   6.150   0.212
 5446SOL    HW216582   2.228   6.124   0.184
 5447SOL     OW16583   2.034   6.731   1.477
 5447SOL    HW116584   2.020   6.682   1.558
 5447SOL    HW216585   2.040   6.664   1.409
 5448SOL     OW16586   3.197   6.622   1.222
 5448SOL    HW116587   3.218   6.558   1.154
 5448SOL    HW216588   3.128   6.676   1.184
 5449SOL     OW16589   3.165   6.430   0.311
 5449SOL    HW116590   3.088   6.397   0.356
 5449SOL    HW216591   3.149   6.413   0.219
 5450SOL     OW16592   1.946   6.860   1.017
 5450SOL    HW116593   1.931   6.870   1.111
 5450SOL    HW216594   1.874   6.803   0.988
 5451SOL     OW16595   2.800   5.662   0.107
 5451SOL    HW116596   2.870   5.714   0.067
 5451SOL    HW216597   2.846   5.605   0.170
 5452SOL     OW16598   3.592   5.754   0.535
 5452SOL    HW116599   3.657   5.737   0.466
 5452SOL    HW216600   3.564   5.667   0.562
 5453SOL     OW16601   3.137   6.508   0.678
 5453SOL    HW116602   3.210   6.447   0.687
 5453SOL    HW216603   3.173   6.584   0.632
 5454SOL     OW16604   2.672   6.841   1.420
 5454SOL    HW116605   2.646   6.879   1.504
 5454SOL    HW216606   2.605   6.870   1.358
 5455SOL     OW16607   3.705   5.755   0.964
 5455SOL    HW116608   3.734   5.667   0.941
 5455SOL    HW216609   3.618   5.763   0.924
 5456SOL     OW16610   2.117   5.902   0.716
 5456SOL    HW116611   2.031   5.937   0.694
 5456SOL    HW216612   2.118   5.897   0.811
 5457SOL     OW16613   2.688   6.578   1.369
 5457SOL    HW116614   2.741   6.565   1.290
 5457SOL    HW216615   2.689   6.673   1.383
 5458SOL     OW16616   2.785   6.501   0.290
 5458SOL    HW116617   2.843   6.537   0.222
 5458SOL    HW216618   2.838   6.435   0.334
 5459SOL     OW16619   2.259   6.896   1.463
 5459SOL    HW116620   2.223   6.977   1.498
 5459SOL    HW216621   2.192   6.831   1.479
 5460SOL     OW16622   3.459   6.850   1.317
 5460SOL    HW116623   3.530   6.831   1.377
 5460SOL    HW216624   3.412   6.923   1.358
 5461SOL     OW16625   2.922   6.711   0.735
 5461SOL    HW116626   2.848   6.657   0.762
 5461SOL    HW216627   2.985   6.648   0.698
 5462SOL     OW16628   2.888   5.828   0.965
 5462SOL    HW116629   2.886   5.781   0.881
 5462SOL    HW216630   2.882   5.759   1.031
 5463SOL     OW16631   3.591   5.977   1.381
 5463SOL    HW116632   3.663   6.040   1.381
 5463SOL    HW216633   3.620   5.907   1.322
 5464SOL     OW16634   1.970   6.607   1.713
 5464SOL    HW116635   1.896   6.586   1.771
 5464SOL    HW216636   2.047   6.576   1.760
 5465SOL     OW16637   2.539   5.780   1.499
 5465SOL    HW116638   2.623   5.758   1.460
 5465SOL    HW216639   2.561   5.813   1.586
 5466SOL     OW16640   1.967   5.902   0.011
 5466SOL    HW116641   1.911   5.848   6.956
 5466SOL    HW216642   1.987   5.979   6.958
 5467SOL     OW16643   3.290   6.437   1.400
 5467SOL    HW116644   3.242   6.499   1.345
 5467SOL    HW216645   3.379   6.439   1.365
 5468SOL     OW16646   1.913   5.756   0.333
 5468SOL    HW116647   1.894   5.835   0.283
 5468SOL    HW216648   2.002   5.732   0.308
 5469SOL     OW16649   2.482   6.414   1.437
 5469SOL    HW116650   2.541   6.487   1.417
 5469SOL    HW216651   2.540   6.338   1.443
 5470SOL     OW16652   2.582   6.143   1.699
 5470SOL    HW116653   2.627   6.200   1.760
 5470SOL    HW216654   2.597   6.055   1.732
 5471SOL     OW16655   3.349   6.775   1.643
 5471SOL    HW116656   3.342   6.799   1.735
 5471SOL    HW216657   3.441   6.789   1.621
 5472SOL     OW16658   3.526   6.461   1.252
 5472SOL    HW116659   3.521   6.376   1.208
 5472SOL    HW216660   3.515   6.526   1.182
 5473SOL     OW16661   3.081   5.904   0.454
 5473SOL    HW116662   3.162   5.860   0.431
 5473SOL    HW216663   3.102   5.954   0.533
 5474SOL     OW16664   2.447   6.317   0.672
 5474SOL    HW116665   2.488   6.403   0.662
 5474SOL    HW216666   2.383   6.312   0.601
 5475SOL     OW16667   3.617   5.949   1.654
 5475SOL    HW116668   3.604   5.966   1.560
 5475SOL    HW216669   3.543   5.892   1.678
 5476SOL     OW16670   3.601   6.520   1.507
 5476SOL    HW116671   3.599   6.616   1.515
 5476SOL    HW216672   3.588   6.503   1.414
 5477SOL     OW16673   2.731   6.552   0.856
 5477SOL    HW116674   2.783   6.480   0.891
 5477SOL    HW216675   2.703   6.601   0.933
 5478SOL     OW16676   2.948   6.585   0.080
 5478SOL    HW116677   2.902   6.573   6.997
 5478SOL    HW216678   3.026   6.530   0.072
 5479SOL     OW16679   2.081   6.917   1.813
 5479SOL    HW116680   2.021   6.844   1.829
 5479SOL    HW216681   2.087   6.962   1.898
 5480SOL     OW16682   1.969   6.825   0.674
 5480SOL    HW116683   1.992   6.769   0.749
 5480SOL    HW216684   2.021   6.791   0.601
 5481SOL     OW16685   2.560   6.972   1.634
 5481SOL    HW116686   2.469   6.978   1.665
 5481SOL    HW216687   2.579   0.059   1.599
 5482SOL     OW16688   3.672   5.766   1.235
 5482SOL    HW116689   3.678   5.672   1.248
 5482SOL    HW216690   3.684   5.779   1.141
 5483SOL     OW16691   2.288   6.019   0.526
 5483SOL    HW116692   2.316   5.946   0.470
 5483SOL    HW216693   2.239   5.978   0.597
 5484SOL     OW16694   3.522   0.036   1.132
 5484SOL    HW116695   3.464   0.022   1.057
 5484SOL    HW216696   3.506   6.961   1.189
 5485SOL     OW16697   2.199   6.147   1.293
 5485SOL    HW116698   2.252   6.088   1.348
 5485SOL    HW216699   2.215   6.117   1.204
 5486SOL     OW16700   3.291   5.817   1.116
 5486SOL    HW116701   3.310   5.733   1.158
 5486SOL    HW216702   3.240   5.865   1.182
 5487SOL     OW16703   2.871   5.603   1.133
 5487SOL    HW116704   2.816   5.536   1.091
 5487SOL    HW216705   2.958   5.563   1.135
 5488SOL     OW16706   2.671   6.880   0.287
 5488SOL    HW116707   2.631   6.797   0.313
 5488SOL    HW216708   2.683   6.928   0.368
 5489SOL     OW16709   3.216   5.642   0.186
 5489SOL    HW116710   3.253   5.575   0.128
 5489SOL    HW216711   3.134   5.604   0.216
 5490SOL     OW16712   3.150   6.046   0.675
 5490SOL    HW116713   3.101   6.128   0.680
 5490SOL    HW216714   3.150   6.013   0.765
 5491SOL     OW16715   3.445   5.779   0.884
 5491SOL    HW116716   3.391   5.806   0.958
 5491SOL    HW216717   3.447   5.856   0.827
 5492SOL     OW16718   1.933   6.647   0.326
 5492SOL    HW116719   2.027   6.626   0.322
 5492SOL    HW216720   1.891   6.562   0.344
 5493SOL     OW16721   2.082   6.210   1.993
 5493SOL    HW116722   1.993   6.203   2.029
 5493SOL    HW216723   2.072   6.187   1.901
 5494SOL     OW16724   2.086   5.871   2.855
 5494SOL    HW116725   2.114   5.835   2.939
 5494SOL    HW216726   1.997   5.838   2.843
 5495SOL     OW16727   1.859   5.971   2.501
 5495SOL    HW116728   1.778   5.998   2.545
 5495SOL    HW216729   1.834   5.894   2.450
 5496SOL     OW16730   2.428   6.878   3.045
 5496SOL    HW116731   2.361   6.902   2.982
 5496SOL    HW216732   2.384   6.883   3.130
 5497SOL     OW16733   3.409   0.053   2.556
 5497SOL    HW116734   3.388   0.044   2.649
 5497SOL    HW216735   3.330   0.091   2.517
 5498SOL     OW16736   2.994   6.283   2.555
 5498SOL    HW116737   3.041   6.365   2.545
 5498SOL    HW216738   2.946   6.293   2.637
 5499SOL     OW16739   3.644   6.180   2.086
 5499SOL    HW116740   3.615   6.176   1.994
 5499SOL    HW216741   3.601   6.105   2.128
 5500SOL     OW16742   2.630   6.754   2.893
 5500SOL    HW116743   2.565   6.790   2.953
 5500SOL    HW216744   2.615   6.800   2.810
 5501SOL     OW16745   2.742   6.345   3.689
 5501SOL    HW116746   2.724   6.413   3.754
 5501SOL    HW216747   2.763   6.393   3.609
 5502SOL     OW16748   2.552   6.579   2.503
 5502SOL    HW116749   2.617   6.572   2.573
 5502SOL    HW216750   2.481   6.631   2.541
 5503SOL     OW16751   2.556   6.732   3.675
 5503SOL    HW116752   2.587   6.820   3.696
 5503SOL    HW216753   2.491   6.745   3.606
 5504SOL     OW16754   2.202   0.003   2.920
 5504SOL    HW116755   2.126   6.963   2.879
 5504SOL    HW216756   2.243   0.054   2.850
 5505SOL     OW16757   2.314   5.977   3.338
 5505SOL    HW116758   2.390   5.919   3.347
 5505SOL    HW216759   2.239   5.922   3.359
 5506SOL     OW16760   3.465   6.027   2.607
 5506SOL    HW116761   3.393   6.044   2.547
 5506SOL    HW216762   3.465   6.102   2.666
 5507SOL     OW16763   2.119   6.678   2.757
 5507SOL    HW116764   2.116   6.590   2.793
 5507SOL    HW216765   2.062   6.729   2.815
 5508SOL     OW16766   2.434   6.565   2.003
 5508SOL    HW116767   2.480   6.614   1.935
 5508SOL    HW216768   2.476   6.593   2.085
 5509SOL     OW16769   3.457   5.715   3.325
 5509SOL    HW116770   3.483   5.795   3.279
 5509SOL    HW216771   3.435   5.744   3.413
 5510SOL     OW16772   1.981   6.241   2.425
 5510SOL    HW116773   1.951   6.153   2.446
 5510SOL    HW216774   1.972   6.290   2.506
 5511SOL     OW16775   3.551   6.501   2.506
 5511SOL    HW116776   3.636   6.461   2.487
 5511SOL    HW216777   3.531   6.554   2.429
 5512SOL     OW16778   3.512   6.689   2.287
 5512SOL    HW116779   3.598   6.686   2.244
 5512SOL    HW216780   3.525   6.745   2.363
 5513SOL     OW16781   1.991   6.331   3.446
 5513SOL    HW116782   2.083   6.358   3.448
 5513SOL    HW216783   1.942   6.413   3.456
 5514SOL     OW16784   3.167   6.813   3.297
 5514SOL    HW116785   3.201   6.752   3.231
 5514SOL    HW216786   3.228   6.807   3.370
 5515SOL     OW16787   2.684   5.592   2.375
 5515SOL    HW116788   2.724   5.675   2.351
 5515SOL    HW216789   2.590   5.611   2.380
 5516SOL     OW16790   2.050   6.547   3.141
 5516SOL    HW116791   2.135   6.506   3.125
 5516SOL    HW216792   1.989   6.500   3.084
 5517SOL     OW16793   3.397   6.586   2.060
 5517SOL    HW116794   3.328   6.528   2.092
 5517SOL    HW216795   3.441   6.617   2.139
 5518SOL     OW16796   2.207   5.835   3.698
 5518SOL    HW116797   2.246   5.919   3.721
 5518SOL    HW216798   2.113   5.847   3.714
 5519SOL     OW16799   3.326   6.981   2.813
 5519SOL    HW116800   3.248   0.005   2.864
 5519SOL    HW216801   3.307   6.893   2.780
 5520SOL     OW16802   2.456   6.298   2.135
 5520SOL    HW116803   2.457   6.382   2.090
 5520SOL    HW216804   2.391   6.309   2.204
 5521SOL     OW16805   3.141   5.955   2.797
 5521SOL    HW116806   3.052   5.920   2.805
 5521SOL    HW216807   3.194   5.900   2.855
 5522SOL     OW16808   2.653   6.202   3.308
 5522SOL    HW116809   2.628   6.175   3.396
 5522SOL    HW216810   2.621   6.132   3.252
 5523SOL     OW16811   3.254   6.060   3.540
 5523SOL    HW116812   3.259   6.104   3.625
 5523SOL    HW216813   3.310   5.983   3.550
 5524SOL     OW16814   2.814   6.473   3.451
 5524SOL    HW116815   2.870   6.405   3.414
 5524SOL    HW216816   2.763   6.506   3.377
 5525SOL     OW16817   2.857   5.995   3.092
 5525SOL    HW116818   2.767   6.009   3.120
 5525SOL    HW216819   2.849   5.952   3.007
 5526SOL     OW16820   2.916   6.285   2.285
 5526SOL    HW116821   2.935   6.279   2.379
 5526SOL    HW216822   2.833   6.240   2.274
 5527SOL     OW16823   1.947   6.409   2.639
 5527SOL    HW116824   2.027   6.402   2.691
 5527SOL    HW216825   1.900   6.483   2.677
 5528SOL     OW16826   2.761   5.936   2.058
 5528SOL    HW116827   2.802   5.999   1.999
 5528SOL    HW216828   2.767   5.852   2.013
 5529SOL     OW16829   3.564   6.155   3.693
 5529SOL    HW116830   3.530   6.229   3.642
 5529SOL    HW216831   3.592   6.092   3.627
 5530SOL     OW16832   3.255   6.721   2.417
 5530SOL    HW116833   3.330   6.713   2.358
 5530SOL    HW216834   3.209   6.800   2.387
 5531SOL     OW16835   2.413   5.761   2.761
 5531SOL    HW116836   2.416   5.792   2.852
 5531SOL    HW216837   2.412   5.841   2.709
 5532SOL     OW16838   3.662   6.633   2.742
 5532SOL    HW116839   3.610   6.626   2.661
 5532SOL    HW216840   3.597   6.642   2.811
 5533SOL     OW16841   2.174   6.549   2.123
 5533SOL    HW116842   2.257   6.564   2.077
 5533SOL    HW216843   2.143   6.465   2.090
 5534SOL     OW16844   3.344   6.335   2.583
 5534SOL    HW116845   3.344   6.296   2.670
 5534SOL    HW216846   3.422   6.391   2.581
 5535SOL     OW16847   2.065   5.854   3.366
 5535SOL    HW116848   1.984   5.905   3.372
 5535SOL    HW216849   2.042   5.769   3.403
 5536SOL     OW16850   3.505   6.967   1.952
 5536SOL    HW116851   3.472   0.056   1.966
 5536SOL    HW216852   3.426   6.915   1.936
 5537SOL     OW16853   3.262   5.693   2.304
 5537SOL    HW116854   3.254   5.667   2.213
 5537SOL    HW216855   3.356   5.697   2.321
 5538SOL     OW16856   2.259   6.279   2.334
 5538SOL    HW116857   2.275   6.185   2.348
 5538SOL    HW216858   2.166   6.290   2.352
 5539SOL     OW16859   3.387   5.810   3.585
 5539SOL    HW116860   3.398   5.830   3.678
 5539SOL    HW216861   3.321   5.741   3.583
 5540SOL     OW16862   2.510   5.702   1.963
 5540SOL    HW116863   2.565   5.627   1.984
 5540SOL    HW216864   2.455   5.672   1.891
 5541SOL     OW16865   2.625   5.865   3.619
 5541SOL    HW116866   2.706   5.814   3.615
 5541SOL    HW216867   2.579   5.830   3.695
 5542SOL     OW16868   3.198   6.174   3.296
 5542SOL    HW116869   3.230   6.143   3.381
 5542SOL    HW216870   3.237   6.261   3.287
 5543SOL     OW16871   2.792   6.094   2.760
 5543SOL    HW116872   2.766   6.085   2.668
 5543SOL    HW216873   2.821   6.007   2.786
 5544SOL     OW16874   2.416   5.649   2.357
 5544SOL    HW116875   2.337   5.649   2.410
 5544SOL    HW216876   2.407   5.726   2.300
 5545SOL     OW16877   3.279   6.789   1.922
 5545SOL    HW116878   3.330   6.721   1.966
 5545SOL    HW216879   3.196   6.747   1.901
 5546SOL     OW16880   2.151   5.634   2.048
 5546SOL    HW116881   2.208   5.699   2.007
 5546SOL    HW216882   2.210   5.572   2.091
 5547SOL     OW16883   2.806   5.837   2.317
 5547SOL    HW116884   2.781   5.874   2.232
 5547SOL    HW216885   2.900   5.852   2.323
 5548SOL     OW16886   2.942   6.272   3.320
 5548SOL    HW116887   2.877   6.202   3.323
 5548SOL    HW216888   3.026   6.226   3.313
 5549SOL     OW16889   3.145   0.152   2.605
 5549SOL    HW116890   3.102   0.222   2.554
 5549SOL    HW216891   3.128   0.176   2.696
 5550SOL     OW16892   2.335   6.711   2.598
 5550SOL    HW116893   2.265   6.705   2.663
 5550SOL    HW216894   2.290   6.714   2.514
 5551SOL     OW16895   2.887   6.117   1.889
 5551SOL    HW116896   2.844   6.200   1.870
 5551SOL    HW216897   2.951   6.138   1.957
 5552SOL     OW16898   1.948   6.140   3.255
 5552SOL    HW116899   2.039   6.140   3.228
 5552SOL    HW216900   1.942   6.210   3.320
 5553SOL     OW16901   2.419   5.813   3.035
 5553SOL    HW116902   2.461   5.741   3.081
 5553SOL    HW216903   2.327   5.810   3.062
 5554SOL     OW16904   2.727   6.042   2.499
 5554SOL    HW116905   2.685   6.099   2.435
 5554SOL    HW216906   2.751   5.964   2.450
 5555SOL     OW16907   2.880   5.641   2.608
 5555SOL    HW116908   2.821   5.635   2.533
 5555SOL    HW216909   2.857   5.567   2.663
 5556SOL     OW16910   3.298   6.729   2.717
 5556SOL    HW116911   3.225   6.667   2.721
 5556SOL    HW216912   3.317   6.737   2.624
 5557SOL     OW16913   3.328   6.194   2.826
 5557SOL    HW116914   3.270   6.118   2.830
 5557SOL    HW216915   3.384   6.185   2.903
 5558SOL     OW16916   3.701   6.391   2.247
 5558SOL    HW116917   3.760   6.343   2.307
 5558SOL    HW216918   3.679   6.327   2.180
 5559SOL     OW16919   3.552   6.829   2.507
 5559SOL    HW116920   3.644   6.844   2.529
 5559SOL    HW216921   3.508   6.911   2.531
 5560SOL     OW16922   3.255   6.159   1.933
 5560SOL    HW116923   3.194   6.137   2.003
 5560SOL    HW216924   3.340   6.128   1.965
 5561SOL     OW16925   2.387   5.847   2.171
 5561SOL    HW116926   2.439   5.804   2.103
 5561SOL    HW216927   2.359   5.930   2.131
 5562SOL     OW16928   3.614   6.810   3.430
 5562SOL    HW116929   3.690   6.764   3.466
 5562SOL    HW216930   3.638   6.903   3.434
 5563SOL     OW16931   2.933   6.893   3.183
 5563SOL    HW116932   2.861   6.876   3.243
 5563SOL    HW216933   3.012   6.876   3.235
 5564SOL     OW16934   3.005   6.762   2.956
 5564SOL    HW116935   2.970   6.809   3.032
 5564SOL    HW216936   2.940   6.776   2.887
 5565SOL     OW16937   3.480   6.681   2.942
 5565SOL    HW116938   3.463   6.734   3.020
 5565SOL    HW216939   3.406   6.698   2.885
 5566SOL     OW16940   2.780   5.679   3.252
 5566SOL    HW116941   2.803   5.660   3.160
 5566SOL    HW216942   2.859   5.718   3.289
 5567SOL     OW16943   2.833   6.699   3.603
 5567SOL    HW116944   2.739   6.707   3.619
 5567SOL    HW216945   2.840   6.628   3.540
 5568SOL     OW16946   2.568   6.643   2.228
 5568SOL    HW116947   2.558   6.630   2.322
 5568SOL    HW216948   2.646   6.593   2.204
 5569SOL     OW16949   2.283   6.405   3.115
 5569SOL    HW116950   2.350   6.414   3.182
 5569SOL    HW216951   2.248   6.317   3.128
 5570SOL     OW16952   3.125   5.959   3.144
 5570SOL    HW116953   3.157   6.037   3.189
 5570SOL    HW216954   3.034   5.980   3.122
 5571SOL     OW16955   2.194   6.708   2.359
 5571SOL    HW116956   2.245   6.774   2.311
 5571SOL    HW216957   2.186   6.635   2.298
 5572SOL     OW16958   2.407   6.116   2.722
 5572SOL    HW116959   2.421   6.175   2.647
 5572SOL    HW216960   2.475   6.140   2.784
 5573SOL     OW16961   3.439   6.205   2.346
 5573SOL    HW116962   3.390   6.250   2.416
 5573SOL    HW216963   3.486   6.276   2.302
 5574SOL     OW16964   2.281   6.329   3.468
 5574SOL    HW116965   2.344   6.371   3.410
 5574SOL    HW216966   2.317   6.243   3.485
 5575SOL     OW16967   3.472   6.367   3.550
 5575SOL    HW116968   3.385   6.407   3.544
 5575SOL    HW216969   3.523   6.409   3.481
 5576SOL     OW16970   2.858   5.721   3.616
 5576SOL    HW116971   2.916   5.794   3.595
 5576SOL    HW216972   2.906   5.643   3.591
 5577SOL     OW16973   2.358   5.622   3.613
 5577SOL    HW116974   2.310   5.569   3.549
 5577SOL    HW216975   2.303   5.698   3.629
 5578SOL     OW16976   2.447   6.454   2.897
 5578SOL    HW116977   2.463   6.548   2.890
 5578SOL    HW216978   2.387   6.445   2.972
 5579SOL     OW16979   3.211   6.440   2.883
 5579SOL    HW116980   3.123   6.428   2.846
 5579SOL    HW216981   3.255   6.356   2.869
 5580SOL     OW16982   3.060   6.113   2.123
 5580SOL    HW116983   3.069   6.035   2.177
 5580SOL    HW216984   3.018   6.177   2.180
 5581SOL     OW16985   2.157   5.782   3.109
 5581SOL    HW116986   2.121   5.813   3.192
 5581SOL    HW216987   2.140   5.688   3.108
 5582SOL     OW16988   1.917   6.897   3.149
 5582SOL    HW116989   1.955   6.843   3.217
 5582SOL    HW216990   1.908   6.984   3.188
 5583SOL     OW16991   2.582   6.212   2.914
 5583SOL    HW116992   2.659   6.202   2.857
 5583SOL    HW216993   2.552   6.301   2.897
 5584SOL     OW16994   3.601   6.547   3.719
 5584SOL    HW116995   3.559   6.478   3.669
 5584SOL    HW216996   3.543   6.561   3.794
 5585SOL     OW16997   2.173   5.647   2.487
 5585SOL    HW116998   2.148   5.737   2.507
 5585SOL    HW216999   2.181   5.604   2.573
 5586SOL     OW17000   3.487   5.968   2.219
 5586SOL    HW117001   3.514   5.901   2.282
 5586SOL    HW217002   3.461   6.043   2.272
 5587SOL     OW17003   2.891   6.342   2.819
 5587SOL    HW117004   2.882   6.359   2.913
 5587SOL    HW217005   2.865   6.251   2.808
 5588SOL     OW17006   3.727   0.058   3.457
 5588SOL    HW117007   3.769   0.134   3.416
 5588SOL    HW217008   3.774   0.046   3.539
 5589SOL     OW17009   2.214   6.506   3.669
 5589SOL    HW117010   2.291   6.515   3.726
 5589SOL    HW217011   2.240   6.441   3.604
 5590SOL     OW17012   3.386   5.859   1.987
 5590SOL    HW117013   3.324   5.792   2.016
 5590SOL    HW217014   3.422   5.895   2.067
 5591SOL     OW17015   3.146   6.408   1.886
 5591SOL    HW117016   3.189   6.323   1.893
 5591SOL    HW217017   3.179   6.444   1.803
 5592SOL     OW17018   2.168   6.395   2.806
 5592SOL    HW117019   2.261   6.413   2.794
 5592SOL    HW217020   2.164   6.305   2.838
 5593SOL     OW17021   2.186   6.118   2.875
 5593SOL    HW117022   2.151   6.030   2.863
 5593SOL    HW217023   2.264   6.121   2.819
 5594SOL     OW17024   2.996   5.958   3.548
 5594SOL    HW117025   2.949   6.011   3.611
 5594SOL    HW217026   3.083   5.998   3.543
 5595SOL     OW17027   3.021   5.783   3.334
 5595SOL    HW117028   3.010   5.846   3.406
 5595SOL    HW217029   3.065   5.833   3.265
 5596SOL     OW17030   1.894   6.893   2.034
 5596SOL    HW117031   1.807   6.919   2.005
 5596SOL    HW217032   1.880   6.811   2.082
 5597SOL     OW17033   2.833   6.370   3.085
 5597SOL    HW117034   2.893   6.352   3.157
 5597SOL    HW217035   2.751   6.327   3.110
 5598SOL     OW17036   1.899   6.137   2.979
 5598SOL    HW117037   1.980   6.131   2.928
 5598SOL    HW217038   1.928   6.137   3.070
 5599SOL     OW17039   2.052   6.109   3.595
 5599SOL    HW117040   2.105   6.063   3.530
 5599SOL    HW217041   2.018   6.185   3.548
 5600SOL     OW17042   3.244   6.520   3.519
 5600SOL    HW117043   3.271   6.611   3.513
 5600SOL    HW217044   3.240   6.490   3.428
 5601SOL     OW17045   2.680   6.156   2.230
 5601SOL    HW117046   2.686   6.081   2.170
 5601SOL    HW217047   2.605   6.206   2.199
 5602SOL     OW17048   3.501   6.185   3.039
 5602SOL    HW117049   3.492   6.127   3.115
 5602SOL    HW217050   3.590   6.168   3.006
 5603SOL     OW17051   2.579   6.028   3.113
 5603SOL    HW117052   2.519   5.957   3.089
 5603SOL    HW217053   2.570   6.092   3.042
 5604SOL     OW17054   2.318   6.076   2.038
 5604SOL    HW117055   2.379   6.145   2.065
 5604SOL    HW217056   2.233   6.120   2.032
 5605SOL     OW17057   2.035   6.731   3.339
 5605SOL    HW117058   2.020   6.682   3.420
 5605SOL    HW217059   2.040   6.664   3.271
 5606SOL     OW17060   3.198   6.623   3.083
 5606SOL    HW117061   3.217   6.558   3.016
 5606SOL    HW217062   3.129   6.677   3.044
 5607SOL     OW17063   3.181   6.447   2.161
 5607SOL    HW117064   3.110   6.412   2.217
 5607SOL    HW217065   3.150   6.431   2.072
 5608SOL     OW17066   1.945   6.860   2.879
 5608SOL    HW117067   1.930   6.870   2.973
 5608SOL    HW217068   1.874   6.803   2.850
 5609SOL     OW17069   3.585   5.745   2.365
 5609SOL    HW117070   3.655   5.728   2.302
 5609SOL    HW217071   3.568   5.660   2.405
 5610SOL     OW17072   3.139   6.511   2.538
 5610SOL    HW117073   3.212   6.450   2.549
 5610SOL    HW217074   3.176   6.583   2.486
 5611SOL     OW17075   2.672   6.842   3.281
 5611SOL    HW117076   2.646   6.880   3.365
 5611SOL    HW217077   2.604   6.869   3.220
 5612SOL     OW17078   3.706   5.755   2.827
 5612SOL    HW117079   3.734   5.667   2.804
 5612SOL    HW217080   3.619   5.763   2.788
 5613SOL     OW17081   2.117   5.898   2.576
 5613SOL    HW117082   2.031   5.932   2.553
 5613SOL    HW217083   2.117   5.894   2.671
 5614SOL     OW17084   3.120   0.210   1.861
 5614SOL    HW117085   3.110   0.150   1.936
 5614SOL    HW217086   3.032   0.218   1.825
 5615SOL     OW17087   2.688   6.578   3.232
 5615SOL    HW117088   2.740   6.563   3.153
 5615SOL    HW217089   2.689   6.673   3.244
 5616SOL     OW17090   2.780   6.496   2.146
 5616SOL    HW117091   2.845   6.535   2.087
 5616SOL    HW217092   2.829   6.430   2.195
 5617SOL     OW17093   2.260   6.896   3.324
 5617SOL    HW117094   2.223   6.977   3.360
 5617SOL    HW217095   2.192   6.830   3.341
 5618SOL     OW17096   3.459   6.850   3.179
 5618SOL    HW117097   3.531   6.830   3.240
 5618SOL    HW217098   3.411   6.921   3.221
 5619SOL     OW17099   2.927   6.709   2.593
 5619SOL    HW117100   2.850   6.658   2.621
 5619SOL    HW217101   2.989   6.643   2.562
 5620SOL     OW17102   2.887   5.829   2.828
 5620SOL    HW117103   2.884   5.782   2.744
 5620SOL    HW217104   2.882   5.759   2.894
 5621SOL     OW17105   3.591   5.977   3.242
 5621SOL    HW117106   3.663   6.040   3.242
 5621SOL    HW217107   3.620   5.907   3.184
 5622SOL     OW17108   1.970   6.608   3.575
 5622SOL    HW117109   1.896   6.587   3.633
 5622SOL    HW217110   2.047   6.577   3.622
 5623SOL     OW17111   2.539   5.781   3.362
 5623SOL    HW117112   2.623   5.758   3.322
 5623SOL    HW217113   2.562   5.813   3.449
 5624SOL     OW17114   1.943   5.912   1.893
 5624SOL    HW117115   1.858   5.893   1.855
 5624SOL    HW217116   1.973   5.990   1.846
 5625SOL     OW17117   3.290   6.438   3.262
 5625SOL    HW117118   3.242   6.499   3.207
 5625SOL    HW217119   3.379   6.439   3.227
 5626SOL     OW17120   1.922   5.739   2.161
 5626SOL    HW117121   1.910   5.818   2.108
 5626SOL    HW217122   2.007   5.705   2.135
 5627SOL     OW17123   2.482   6.414   3.299
 5627SOL    HW117124   2.540   6.487   3.279
 5627SOL    HW217125   2.539   6.337   3.305
 5628SOL     OW17126   2.582   6.143   3.561
 5628SOL    HW117127   2.627   6.200   3.623
 5628SOL    HW217128   2.597   6.054   3.594
 5629SOL     OW17129   3.348   6.776   3.505
 5629SOL    HW117130   3.341   6.799   3.597
 5629SOL    HW217131   3.440   6.789   3.483
 5630SOL     OW17132   3.526   6.461   3.114
 5630SOL    HW117133   3.521   6.376   3.070
 5630SOL    HW217134   3.516   6.525   3.043
 5631SOL     OW17135   3.078   5.906   2.318
 5631SOL    HW117136   3.139   5.832   2.313
 5631SOL    HW217137   3.107   5.956   2.394
 5632SOL     OW17138   2.446   6.320   2.537
 5632SOL    HW117139   2.488   6.405   2.522
 5632SOL    HW217140   2.383   6.311   2.466
 5633SOL     OW17141   3.616   5.949   3.516
 5633SOL    HW117142   3.604   5.966   3.422
 5633SOL    HW217143   3.543   5.892   3.540
 5634SOL     OW17144   3.602   6.520   3.369
 5634SOL    HW117145   3.599   6.616   3.376
 5634SOL    HW217146   3.589   6.503   3.276
 5635SOL     OW17147   2.732   6.555   2.717
 5635SOL    HW117148   2.782   6.480   2.751
 5635SOL    HW217149   2.703   6.602   2.795
 5636SOL     OW17150   2.955   6.588   1.959
 5636SOL    HW117151   2.919   6.633   1.882
 5636SOL    HW217152   3.016   6.524   1.923
 5637SOL     OW17153   2.080   6.918   3.674
 5637SOL    HW117154   2.022   6.844   3.689
 5637SOL    HW217155   2.086   6.962   3.759
 5638SOL     OW17156   1.968   6.822   2.535
 5638SOL    HW117157   1.991   6.767   2.610
 5638SOL    HW217158   2.025   6.792   2.465
 5639SOL     OW17159   2.560   6.972   3.495
 5639SOL    HW117160   2.469   6.977   3.526
 5639SOL    HW217161   2.578   0.059   3.460
 5640SOL     OW17162   3.673   5.767   3.098
 5640SOL    HW117163   3.677   5.672   3.111
 5640SOL    HW217164   3.685   5.778   3.003
 5641SOL     OW17165   2.289   6.018   2.387
 5641SOL    HW117166   2.321   5.947   2.330
 5641SOL    HW217167   2.239   5.973   2.455
 5642SOL     OW17168   3.520   0.036   2.994
 5642SOL    HW117169   3.463   0.021   2.919
 5642SOL    HW217170   3.506   6.960   3.051
 5643SOL     OW17171   2.199   6.147   3.155
 5643SOL    HW117172   2.252   6.088   3.209
 5643SOL    HW217173   2.215   6.117   3.066
 5644SOL     OW17174   3.291   5.816   2.978
 5644SOL    HW117175   3.307   5.731   3.017
 5644SOL    HW217176   3.241   5.864   3.044
 5645SOL     OW17177   2.870   5.602   2.995
 5645SOL    HW117178   2.816   5.537   2.952
 5645SOL    HW217179   2.958   5.563   2.998
 5646SOL     OW17180   2.614   6.910   2.127
 5646SOL    HW117181   2.595   6.819   2.150
 5646SOL    HW217182   2.651   6.947   2.207
 5647SOL     OW17183   3.222   5.636   2.036
 5647SOL    HW117184   3.257   5.565   1.983
 5647SOL    HW217185   3.132   5.610   2.055
 5648SOL     OW17186   3.158   6.050   2.539
 5648SOL    HW117187   3.105   6.130   2.542
 5648SOL    HW217188   3.153   6.014   2.627
 5649SOL     OW17189   3.447   5.780   2.746
 5649SOL    HW117190   3.392   5.805   2.820
 5649SOL    HW217191   3.446   5.856   2.688
 5650SOL     OW17192   1.899   6.647   2.174
 5650SOL    HW117193   1.992   6.644   2.154
 5650SOL    HW217194   1.876   6.557   2.196
 5651SOL     OW17195   2.082   6.211   3.855
 5651SOL    HW117196   1.993   6.204   3.891
 5651SOL    HW217197   2.072   6.187   3.763
 5652SOL     OW17198   2.086   5.871   4.717
 5652SOL    HW117199   2.114   5.836   4.801
 5652SOL    HW217200   1.997   5.838   4.705
 5653SOL     OW17201   1.859   5.971   4.363
 5653SOL    HW117202   1.779   5.998   4.407
 5653SOL    HW217203   1.834   5.894   4.312
 5654SOL     OW17204   2.428   6.878   4.907
 5654SOL    HW117205   2.360   6.902   4.844
 5654SOL    HW217206   2.384   6.883   4.992
 5655SOL     OW17207   3.408   0.052   4.417
 5655SOL    HW117208   3.391   0.045   4.511
 5655SOL    HW217209   3.328   0.090   4.381
 5656SOL     OW17210   2.993   6.283   4.417
 5656SOL    HW117211   3.041   6.365   4.407
 5656SOL    HW217212   2.946   6.293   4.500
 5657SOL     OW17213   3.643   6.180   3.948
 5657SOL    HW117214   3.615   6.176   3.857
 5657SOL    HW217215   3.601   6.105   3.989
 5658SOL     OW17216   2.629   6.753   4.755
 5658SOL    HW117217   2.564   6.789   4.815
 5658SOL    HW217218   2.615   6.800   4.672
 5659SOL     OW17219   2.742   6.345   5.551
 5659SOL    HW117220   2.724   6.413   5.616
 5659SOL    HW217221   2.763   6.393   5.471
 5660SOL     OW17222   2.552   6.579   4.365
 5660SOL    HW117223   2.617   6.573   4.434
 5660SOL    HW217224   2.481   6.631   4.403
 5661SOL     OW17225   2.556   6.732   5.537
 5661SOL    HW117226   2.588   6.819   5.560
 5661SOL    HW217227   2.493   6.747   5.467
 5662SOL     OW17228   2.203   0.002   4.782
 5662SOL    HW117229   2.126   6.963   4.741
 5662SOL    HW217230   2.243   0.054   4.712
 5663SOL     OW17231   2.314   5.977   5.199
 5663SOL    HW117232   2.390   5.919   5.209
 5663SOL    HW217233   2.239   5.922   5.220
 5664SOL     OW17234   3.465   6.026   4.469
 5664SOL    HW117235   3.393   6.043   4.409
 5664SOL    HW217236   3.466   6.102   4.528
 5665SOL     OW17237   2.118   6.679   4.619
 5665SOL    HW117238   2.116   6.590   4.655
 5665SOL    HW217239   2.062   6.730   4.677
 5666SOL     OW17240   2.434   6.565   3.865
 5666SOL    HW117241   2.480   6.613   3.797
 5666SOL    HW217242   2.476   6.593   3.947
 5667SOL     OW17243   3.457   5.714   5.187
 5667SOL    HW117244   3.484   5.794   5.141
 5667SOL    HW217245   3.435   5.744   5.276
 5668SOL     OW17246   1.982   6.241   4.287
 5668SOL    HW117247   1.951   6.153   4.309
 5668SOL    HW217248   1.972   6.291   4.368
 5669SOL     OW17249   3.550   6.500   4.367
 5669SOL    HW117250   3.636   6.461   4.349
 5669SOL    HW217251   3.531   6.554   4.291
 5670SOL     OW17252   3.512   6.689   4.148
 5670SOL    HW117253   3.598   6.686   4.106
 5670SOL    HW217254   3.525   6.745   4.225
 5671SOL     OW17255   1.991   6.331   5.308
 5671SOL    HW117256   2.083   6.358   5.310
 5671SOL    HW217257   1.942   6.413   5.318
 5672SOL     OW17258   3.167   6.813   5.159
 5672SOL    HW117259   3.201   6.752   5.093
 5672SOL    HW217260   3.228   6.807   5.232
 5673SOL     OW17261   2.684   5.592   4.239
 5673SOL    HW117262   2.724   5.675   4.214
 5673SOL    HW217263   2.590   5.611   4.243
 5674SOL     OW17264   2.050   6.547   5.003
 5674SOL    HW117265   2.135   6.506   4.987
 5674SOL    HW217266   1.989   6.500   4.946
 5675SOL     OW17267   3.397   6.586   3.922
 5675SOL    HW117268   3.328   6.528   3.954
 5675SOL    HW217269   3.441   6.617   4.001
 5676SOL     OW17270   2.207   5.834   5.560
 5676SOL    HW117271   2.247   5.919   5.582
 5676SOL    HW217272   2.114   5.846   5.576
 5677SOL     OW17273   3.326   6.981   4.676
 5677SOL    HW117274   3.249   0.005   4.728
 5677SOL    HW217275   3.306   6.893   4.643
 5678SOL     OW17276   2.456   6.298   3.997
 5678SOL    HW117277   2.458   6.382   3.952
 5678SOL    HW217278   2.391   6.309   4.066
 5679SOL     OW17279   3.141   5.955   4.659
 5679SOL    HW117280   3.052   5.920   4.667
 5679SOL    HW217281   3.194   5.900   4.717
 5680SOL     OW17282   2.654   6.202   5.170
 5680SOL    HW117283   2.629   6.175   5.258
 5680SOL    HW217284   2.621   6.132   5.113
 5681SOL     OW17285   3.254   6.060   5.402
 5681SOL    HW117286   3.259   6.104   5.487
 5681SOL    HW217287   3.310   5.983   5.412
 5682SOL     OW17288   2.814   6.473   5.313
 5682SOL    HW117289   2.870   6.405   5.276
 5682SOL    HW217290   2.763   6.506   5.239
 5683SOL     OW17291   2.857   5.994   4.954
 5683SOL    HW117292   2.767   6.009   4.983
 5683SOL    HW217293   2.849   5.953   4.868
 5684SOL     OW17294   2.916   6.285   4.147
 5684SOL    HW117295   2.935   6.279   4.241
 5684SOL    HW217296   2.832   6.240   4.136
 5685SOL     OW17297   1.947   6.409   4.501
 5685SOL    HW117298   2.027   6.402   4.553
 5685SOL    HW217299   1.900   6.483   4.539
 5686SOL     OW17300   2.761   5.936   3.920
 5686SOL    HW117301   2.802   5.999   3.861
 5686SOL    HW217302   2.766   5.852   3.874
 5687SOL     OW17303   3.563   6.154   5.555
 5687SOL    HW117304   3.530   6.229   5.504
 5687SOL    HW217305   3.592   6.092   5.488
 5688SOL     OW17306   3.255   6.721   4.279
 5688SOL    HW117307   3.330   6.714   4.221
 5688SOL    HW217308   3.210   6.800   4.250
 5689SOL     OW17309   2.413   5.760   4.623
 5689SOL    HW117310   2.415   5.791   4.714
 5689SOL    HW217311   2.412   5.839   4.570
 5690SOL     OW17312   3.662   6.632   4.604
 5690SOL    HW117313   3.610   6.627   4.523
 5690SOL    HW217314   3.597   6.642   4.674
 5691SOL     OW17315   2.174   6.549   3.985
 5691SOL    HW117316   2.257   6.564   3.939
 5691SOL    HW217317   2.143   6.465   3.952
 5692SOL     OW17318   3.344   6.335   4.445
 5692SOL    HW117319   3.344   6.297   4.533
 5692SOL    HW217320   3.422   6.391   4.443
 5693SOL     OW17321   2.065   5.854   5.228
 5693SOL    HW117322   1.984   5.906   5.235
 5693SOL    HW217323   2.041   5.769   5.265
 5694SOL     OW17324   3.505   6.967   3.814
 5694SOL    HW117325   3.472   0.056   3.828
 5694SOL    HW217326   3.426   6.915   3.799
 5695SOL     OW17327   3.261   5.692   4.167
 5695SOL    HW117328   3.254   5.667   4.075
 5695SOL    HW217329   3.356   5.697   4.182
 5696SOL     OW17330   2.259   6.279   4.196
 5696SOL    HW117331   2.275   6.185   4.210
 5696SOL    HW217332   2.166   6.290   4.214
 5697SOL     OW17333   3.387   5.810   5.447
 5697SOL    HW117334   3.399   5.831   5.540
 5697SOL    HW217335   3.320   5.742   5.445
 5698SOL     OW17336   2.510   5.701   3.825
 5698SOL    HW117337   2.565   5.626   3.845
 5698SOL    HW217338   2.455   5.672   3.753
 5699SOL     OW17339   2.624   5.864   5.480
 5699SOL    HW117340   2.706   5.814   5.477
 5699SOL    HW217341   2.579   5.831   5.558
 5700SOL     OW17342   3.198   6.174   5.158
 5700SOL    HW117343   3.230   6.143   5.243
 5700SOL    HW217344   3.237   6.261   5.148
 5701SOL     OW17345   2.792   6.094   4.622
 5701SOL    HW117346   2.766   6.085   4.530
 5701SOL    HW217347   2.821   6.007   4.647
 5702SOL     OW17348   2.416   5.649   4.219
 5702SOL    HW117349   2.336   5.649   4.272
 5702SOL    HW217350   2.407   5.726   4.162
 5703SOL     OW17351   3.279   6.788   3.784
 5703SOL    HW117352   3.330   6.721   3.828
 5703SOL    HW217353   3.195   6.746   3.764
 5704SOL     OW17354   2.151   5.634   3.911
 5704SOL    HW117355   2.207   5.699   3.868
 5704SOL    HW217356   2.211   5.573   3.952
 5705SOL     OW17357   2.806   5.836   4.178
 5705SOL    HW117358   2.781   5.874   4.094
 5705SOL    HW217359   2.900   5.851   4.185
 5706SOL     OW17360   2.942   6.272   5.182
 5706SOL    HW117361   2.877   6.203   5.185
 5706SOL    HW217362   3.026   6.226   5.176
 5707SOL     OW17363   3.145   0.153   4.464
 5707SOL    HW117364   3.103   0.225   4.417
 5707SOL    HW217365   3.129   0.173   4.557
 5708SOL     OW17366   2.335   6.711   4.460
 5708SOL    HW117367   2.265   6.705   4.525
 5708SOL    HW217368   2.289   6.714   4.376
 5709SOL     OW17369   2.887   6.117   3.752
 5709SOL    HW117370   2.844   6.200   3.732
 5709SOL    HW217371   2.952   6.138   3.819
 5710SOL     OW17372   1.947   6.140   5.117
 5710SOL    HW117373   2.039   6.140   5.090
 5710SOL    HW217374   1.942   6.210   5.182
 5711SOL     OW17375   2.419   5.813   4.896
 5711SOL    HW117376   2.461   5.742   4.944
 5711SOL    HW217377   2.327   5.810   4.924
 5712SOL     OW17378   2.727   6.042   4.361
 5712SOL    HW117379   2.685   6.099   4.297
 5712SOL    HW217380   2.751   5.964   4.312
 5713SOL     OW17381   2.880   5.641   4.470
 5713SOL    HW117382   2.821   5.636   4.395
 5713SOL    HW217383   2.856   5.567   4.525
 5714SOL     OW17384   3.298   6.729   4.580
 5714SOL    HW117385   3.225   6.667   4.583
 5714SOL    HW217386   3.318   6.737   4.486
 5715SOL     OW17387   3.328   6.194   4.688
 5715SOL    HW117388   3.270   6.118   4.692
 5715SOL    HW217389   3.384   6.185   4.765
 5716SOL     OW17390   3.702   6.391   4.109
 5716SOL    HW117391   3.760   6.343   4.168
 5716SOL    HW217392   3.679   6.327   4.041
 5717SOL     OW17393   3.551   6.829   4.369
 5717SOL    HW117394   3.643   6.844   4.391
 5717SOL    HW217395   3.507   6.910   4.393
 5718SOL     OW17396   3.255   6.159   3.795
 5718SOL    HW117397   3.194   6.137   3.865
 5718SOL    HW217398   3.340   6.128   3.827
 5719SOL     OW17399   2.387   5.847   4.033
 5719SOL    HW117400   2.439   5.804   3.965
 5719SOL    HW217401   2.359   5.929   3.993
 5720SOL     OW17402   3.615   6.810   5.291
 5720SOL    HW117403   3.691   6.765   5.326
 5720SOL    HW217404   3.638   6.903   5.295
 5721SOL     OW17405   2.933   6.893   5.045
 5721SOL    HW117406   2.860   6.876   5.105
 5721SOL    HW217407   3.012   6.876   5.097
 5722SOL     OW17408   3.005   6.761   4.818
 5722SOL    HW117409   2.970   6.808   4.894
 5722SOL    HW217410   2.941   6.777   4.749
 5723SOL     OW17411   3.480   6.681   4.805
 5723SOL    HW117412   3.463   6.734   4.882
 5723SOL    HW217413   3.406   6.698   4.747
 5724SOL     OW17414   2.781   5.677   5.114
 5724SOL    HW117415   2.803   5.660   5.023
 5724SOL    HW217416   2.860   5.717   5.151
 5725SOL     OW17417   2.833   6.699   5.465
 5725SOL    HW117418   2.739   6.708   5.481
 5725SOL    HW217419   2.840   6.628   5.402
 5726SOL     OW17420   2.568   6.643   4.090
 5726SOL    HW117421   2.558   6.630   4.184
 5726SOL    HW217422   2.646   6.593   4.066
 5727SOL     OW17423   2.283   6.405   4.977
 5727SOL    HW117424   2.350   6.415   5.044
 5727SOL    HW217425   2.248   6.317   4.990
 5728SOL     OW17426   3.125   5.959   5.007
 5728SOL    HW117427   3.157   6.037   5.052
 5728SOL    HW217428   3.034   5.980   4.984
 5729SOL     OW17429   2.194   6.708   4.221
 5729SOL    HW117430   2.245   6.774   4.173
 5729SOL    HW217431   2.186   6.635   4.160
 5730SOL     OW17432   2.407   6.116   4.584
 5730SOL    HW117433   2.421   6.175   4.509
 5730SOL    HW217434   2.475   6.140   4.646
 5731SOL     OW17435   3.439   6.205   4.209
 5731SOL    HW117436   3.390   6.250   4.278
 5731SOL    HW217437   3.486   6.275   4.164
 5732SOL     OW17438   2.281   6.329   5.330
 5732SOL    HW117439   2.344   6.371   5.272
 5732SOL    HW217440   2.318   6.243   5.347
 5733SOL     OW17441   3.472   6.367   5.412
 5733SOL    HW117442   3.385   6.407   5.406
 5733SOL    HW217443   3.523   6.409   5.343
 5734SOL     OW17444   2.858   5.721   5.478
 5734SOL    HW117445   2.916   5.794   5.457
 5734SOL    HW217446   2.907   5.643   5.453
 5735SOL     OW17447   2.358   5.620   5.476
 5735SOL    HW117448   2.310   5.569   5.412
 5735SOL    HW217449   2.303   5.697   5.492
 5736SOL     OW17450   2.447   6.454   4.759
 5736SOL    HW117451   2.464   6.548   4.752
 5736SOL    HW217452   2.387   6.446   4.834
 5737SOL     OW17453   3.211   6.440   4.745
 5737SOL    HW117454   3.123   6.428   4.708
 5737SOL    HW217455   3.254   6.356   4.731
 5738SOL     OW17456   3.060   6.113   3.985
 5738SOL    HW117457   3.069   6.035   4.039
 5738SOL    HW217458   3.018   6.177   4.042
 5739SOL     OW17459   2.157   5.782   4.971
 5739SOL    HW117460   2.121   5.813   5.054
 5739SOL    HW217461   2.139   5.688   4.971
 5740SOL     OW17462   1.917   6.897   5.011
 5740SOL    HW117463   1.955   6.843   5.079
 5740SOL    HW217464   1.908   6.984   5.051
 5741SOL     OW17465   2.582   6.212   4.776
 5741SOL    HW117466   2.659   6.202   4.719
 5741SOL    HW217467   2.552   6.301   4.760
 5742SOL     OW17468   3.601   6.546   5.581
 5742SOL    HW117469   3.559   6.477   5.531
 5742SOL    HW217470   3.543   6.561   5.656
 5743SOL     OW17471   2.172   5.646   4.349
 5743SOL    HW117472   2.147   5.736   4.368
 5743SOL    HW217473   2.180   5.604   4.434
 5744SOL     OW17474   3.486   5.967   4.081
 5744SOL    HW117475   3.514   5.901   4.145
 5744SOL    HW217476   3.461   6.043   4.135
 5745SOL     OW17477   2.891   6.342   4.681
 5745SOL    HW117478   2.882   6.359   4.775
 5745SOL    HW217479   2.865   6.251   4.670
 5746SOL     OW17480   3.727   0.059   5.318
 5746SOL    HW117481   3.768   0.135   5.276
 5746SOL    HW217482   3.772   0.049   5.401
 5747SOL     OW17483   2.214   6.506   5.532
 5747SOL    HW117484   2.291   6.515   5.588
 5747SOL    HW217485   2.240   6.441   5.466
 5748SOL     OW17486   3.385   5.859   3.849
 5748SOL    HW117487   3.324   5.791   3.878
 5748SOL    HW217488   3.422   5.895   3.929
 5749SOL     OW17489   3.146   6.408   3.748
 5749SOL    HW117490   3.189   6.322   3.755
 5749SOL    HW217491   3.179   6.444   3.665
 5750SOL     OW17492   2.168   6.395   4.668
 5750SOL    HW117493   2.261   6.413   4.656
 5750SOL    HW217494   2.165   6.305   4.700
 5751SOL     OW17495   2.187   6.118   4.737
 5751SOL    HW117496   2.151   6.030   4.725
 5751SOL    HW217497   2.264   6.121   4.681
 5752SOL     OW17498   2.996   5.957   5.411
 5752SOL    HW117499   2.949   6.011   5.474
 5752SOL    HW217500   3.083   5.998   5.406
 5753SOL     OW17501   3.022   5.782   5.197
 5753SOL    HW117502   3.011   5.845   5.268
 5753SOL    HW217503   3.065   5.832   5.127
 5754SOL     OW17504   1.894   6.893   3.896
 5754SOL    HW117505   1.807   6.919   3.867
 5754SOL    HW217506   1.880   6.812   3.944
 5755SOL     OW17507   2.833   6.369   4.946
 5755SOL    HW117508   2.893   6.352   5.019
 5755SOL    HW217509   2.751   6.328   4.973
 5756SOL     OW17510   1.899   6.136   4.841
 5756SOL    HW117511   1.980   6.131   4.791
 5756SOL    HW217512   1.928   6.137   4.933
 5757SOL     OW17513   2.052   6.109   5.457
 5757SOL    HW117514   2.106   6.064   5.392
 5757SOL    HW217515   2.018   6.186   5.411
 5758SOL     OW17516   3.244   6.519   5.381
 5758SOL    HW117517   3.271   6.611   5.375
 5758SOL    HW217518   3.240   6.490   5.290
 5759SOL     OW17519   2.680   6.155   4.092
 5759SOL    HW117520   2.686   6.081   4.032
 5759SOL    HW217521   2.605   6.206   4.061
 5760SOL     OW17522   3.501   6.184   4.901
 5760SOL    HW117523   3.492   6.127   4.977
 5760SOL    HW217524   3.590   6.168   4.868
 5761SOL     OW17525   2.579   6.028   4.975
 5761SOL    HW117526   2.519   5.957   4.951
 5761SOL    HW217527   2.570   6.092   4.904
 5762SOL     OW17528   2.318   6.076   3.901
 5762SOL    HW117529   2.379   6.145   3.927
 5762SOL    HW217530   2.233   6.120   3.894
 5763SOL     OW17531   2.034   6.731   5.201
 5763SOL    HW117532   2.020   6.682   5.282
 5763SOL    HW217533   2.040   6.664   5.133
 5764SOL     OW17534   3.198   6.622   4.945
 5764SOL    HW117535   3.218   6.558   4.878
 5764SOL    HW217536   3.129   6.677   4.907
 5765SOL     OW17537   3.181   6.447   4.023
 5765SOL    HW117538   3.111   6.413   4.079
 5765SOL    HW217539   3.150   6.430   3.934
 5766SOL     OW17540   1.946   6.860   4.741
 5766SOL    HW117541   1.931   6.870   4.835
 5766SOL    HW217542   1.874   6.803   4.712
 5767SOL     OW17543   3.586   5.745   4.227
 5767SOL    HW117544   3.655   5.729   4.163
 5767SOL    HW217545   3.569   5.660   4.267
 5768SOL     OW17546   3.139   6.511   4.400
 5768SOL    HW117547   3.212   6.450   4.411
 5768SOL    HW217548   3.176   6.582   4.348
 5769SOL     OW17549   2.672   6.842   5.143
 5769SOL    HW117550   2.646   6.880   5.227
 5769SOL    HW217551   2.604   6.870   5.082
 5770SOL     OW17552   3.705   5.755   4.689
 5770SOL    HW117553   3.734   5.667   4.665
 5770SOL    HW217554   3.618   5.763   4.650
 5771SOL     OW17555   2.117   5.897   4.437
 5771SOL    HW117556   2.031   5.932   4.415
 5771SOL    HW217557   2.117   5.894   4.533
 5772SOL     OW17558   3.117   0.210   3.724
 5772SOL    HW117559   3.115   0.148   3.797
 5772SOL    HW217560   3.028   0.210   3.690
 5773SOL     OW17561   2.688   6.578   5.094
 5773SOL    HW117562   2.740   6.564   5.014
 5773SOL    HW217563   2.689   6.673   5.107
 5774SOL     OW17564   2.780   6.496   4.007
 5774SOL    HW117565   2.845   6.535   3.949
 5774SOL    HW217566   2.829   6.430   4.057
 5775SOL     OW17567   2.259   6.896   5.186
 5775SOL    HW117568   2.223   6.977   5.223
 5775SOL    HW217569   2.192   6.830   5.202
 5776SOL     OW17570   3.459   6.850   5.041
 5776SOL    HW117571   3.530   6.831   5.101
 5776SOL    HW217572   3.412   6.923   5.082
 5777SOL     OW17573   2.927   6.708   4.455
 5777SOL    HW117574   2.850   6.658   4.483
 5777SOL    HW217575   2.989   6.642   4.424
 5778SOL     OW17576   2.887   5.829   4.690
 5778SOL    HW117577   2.884   5.783   4.606
 5778SOL    HW217578   2.882   5.760   4.756
 5779SOL     OW17579   3.591   5.977   5.105
 5779SOL    HW117580   3.663   6.040   5.105
 5779SOL    HW217581   3.620   5.907   5.046
 5780SOL     OW17582   1.970   6.607   5.437
 5780SOL    HW117583   1.896   6.586   5.495
 5780SOL    HW217584   2.047   6.576   5.484
 5781SOL     OW17585   2.539   5.779   5.223
 5781SOL    HW117586   2.623   5.757   5.184
 5781SOL    HW217587   2.561   5.813   5.310
 5782SOL     OW17588   1.943   5.912   3.754
 5782SOL    HW117589   1.857   5.893   3.716
 5782SOL    HW217590   1.973   5.991   3.708
 5783SOL     OW17591   3.290   6.437   5.124
 5783SOL    HW117592   3.242   6.499   5.069
 5783SOL    HW217593   3.379   6.439   5.089
 5784SOL     OW17594   1.922   5.739   4.023
 5784SOL    HW117595   1.909   5.818   3.970
 5784SOL    HW217596   2.007   5.706   3.996
 5785SOL     OW17597   2.482   6.414   5.161
 5785SOL    HW117598   2.541   6.487   5.141
 5785SOL    HW217599   2.540   6.337   5.167
 5786SOL     OW17600   2.581   6.143   5.423
 5786SOL    HW117601   2.627   6.201   5.484
 5786SOL    HW217602   2.597   6.055   5.456
 5787SOL     OW17603   3.348   6.775   5.367
 5787SOL    HW117604   3.341   6.800   5.459
 5787SOL    HW217605   3.441   6.789   5.345
 5788SOL     OW17606   3.526   6.461   4.976
 5788SOL    HW117607   3.521   6.376   4.932
 5788SOL    HW217608   3.516   6.525   4.906
 5789SOL     OW17609   3.078   5.906   4.180
 5789SOL    HW117610   3.139   5.832   4.175
 5789SOL    HW217611   3.107   5.956   4.256
 5790SOL     OW17612   2.446   6.319   4.399
 5790SOL    HW117613   2.488   6.404   4.384
 5790SOL    HW217614   2.383   6.311   4.328
 5791SOL     OW17615   3.617   5.949   5.378
 5791SOL    HW117616   3.604   5.966   5.284
 5791SOL    HW217617   3.543   5.893   5.402
 5792SOL     OW17618   3.601   6.520   5.231
 5792SOL    HW117619   3.599   6.616   5.238
 5792SOL    HW217620   3.588   6.503   5.138
 5793SOL     OW17621   2.732   6.554   4.579
 5793SOL    HW117622   2.783   6.481   4.613
 5793SOL    HW217623   2.703   6.602   4.657
 5794SOL     OW17624   2.955   6.588   3.821
 5794SOL    HW117625   2.920   6.633   3.744
 5794SOL    HW217626   3.016   6.524   3.785
 5795SOL     OW17627   2.081   6.918   5.537
 5795SOL    HW117628   2.021   6.845   5.553
 5795SOL    HW217629   2.088   6.962   5.622
 5796SOL     OW17630   1.968   6.822   4.397
 5796SOL    HW117631   1.991   6.767   4.472
 5796SOL    HW217632   2.025   6.792   4.327
 5797SOL     OW17633   2.560   6.972   5.358
 5797SOL    HW117634   2.469   6.978   5.389
 5797SOL    HW217635   2.580   0.059   5.324
 5798SOL     OW17636   3.672   5.766   4.960
 5798SOL    HW117637   3.679   5.672   4.972
 5798SOL    HW217638   3.684   5.779   4.866
 5799SOL     OW17639   2.289   6.018   4.249
 5799SOL    HW117640   2.321   5.947   4.192
 5799SOL    HW217641   2.239   5.973   4.317
 5800SOL     OW17642   3.523   0.034   4.854
 5800SOL    HW117643   3.464   0.020   4.780
 5800SOL    HW217644   3.507   6.960   4.912
 5801SOL     OW17645   2.199   6.147   5.017
 5801SOL    HW117646   2.252   6.088   5.071
 5801SOL    HW217647   2.215   6.118   4.927
 5802SOL     OW17648   3.290   5.816   4.841
 5802SOL    HW117649   3.309   5.732   4.882
 5802SOL    HW217650   3.240   5.865   4.906
 5803SOL     OW17651   2.871   5.602   4.857
 5803SOL    HW117652   2.816   5.537   4.813
 5803SOL    HW217653   2.958   5.563   4.860
 5804SOL     OW17654   2.614   6.910   3.989
 5804SOL    HW117655   2.595   6.819   4.012
 5804SOL    HW217656   2.651   6.948   4.069
 5805SOL     OW17657   3.222   5.636   3.898
 5805SOL    HW117658   3.256   5.565   3.844
 5805SOL    HW217659   3.132   5.609   3.918
 5806SOL     OW17660   3.158   6.050   4.401
 5806SOL    HW117661   3.106   6.130   4.404
 5806SOL    HW217662   3.153   6.014   4.490
 5807SOL     OW17663   3.446   5.779   4.608
 5807SOL    HW117664   3.391   5.806   4.682
 5807SOL    HW217665   3.446   5.856   4.551
 5808SOL     OW17666   1.899   6.647   4.036
 5808SOL    HW117667   1.993   6.644   4.016
 5808SOL    HW217668   1.876   6.557   4.057
 5809SOL     OW17669   2.081   6.210   5.718
 5809SOL    HW117670   1.993   6.203   5.753
 5809SOL    HW217671   2.072   6.187   5.625
 5810SOL     OW17672   2.083   5.877   6.582
 5810SOL    HW117673   2.116   5.837   6.662
 5810SOL    HW217674   1.995   5.840   6.571
 5811SOL     OW17675   1.858   5.970   6.227
 5811SOL    HW117676   1.777   6.000   6.268
 5811SOL    HW217677   1.833   5.893   6.176
 5812SOL     OW17678   2.421   6.884   6.768
 5812SOL    HW117679   2.353   6.910   6.707
 5812SOL    HW217680   2.376   6.875   6.852
 5813SOL     OW17681   3.408   0.053   6.277
 5813SOL    HW117682   3.387   0.044   6.370
 5813SOL    HW217683   3.329   0.091   6.239
 5814SOL     OW17684   2.992   6.283   6.281
 5814SOL    HW117685   3.039   6.365   6.271
 5814SOL    HW217686   2.943   6.293   6.363
 5815SOL     OW17687   3.644   6.180   5.810
 5815SOL    HW117688   3.615   6.176   5.718
 5815SOL    HW217689   3.602   6.106   5.852
 5816SOL     OW17690   2.611   6.736   6.623
 5816SOL    HW117691   2.551   6.781   6.683
 5816SOL    HW217692   2.616   6.793   6.547
 5817SOL     OW17693   2.552   6.579   6.227
 5817SOL    HW117694   2.618   6.573   6.296
 5817SOL    HW217695   2.481   6.631   6.266
 5818SOL     OW17696   2.204   0.009   6.640
 5818SOL    HW117697   2.128   6.965   6.601
 5818SOL    HW217698   2.242   0.059   6.568
 5819SOL     OW17699   3.465   6.028   6.331
 5819SOL    HW117700   3.393   6.044   6.270
 5819SOL    HW217701   3.458   6.100   6.394
 5820SOL     OW17702   2.121   6.680   6.487
 5820SOL    HW117703   2.117   6.591   6.524
 5820SOL    HW217704   2.064   6.731   6.544
 5821SOL     OW17705   2.434   6.565   5.727
 5821SOL    HW117706   2.480   6.614   5.659
 5821SOL    HW217707   2.476   6.593   5.808
 5822SOL     OW17708   1.982   6.240   6.149
 5822SOL    HW117709   1.950   6.153   6.171
 5822SOL    HW217710   1.973   6.290   6.231
 5823SOL     OW17711   3.553   6.501   6.225
 5823SOL    HW117712   3.634   6.458   6.196
 5823SOL    HW217713   3.528   6.556   6.151
 5824SOL     OW17714   3.512   6.690   6.010
 5824SOL    HW117715   3.598   6.686   5.968
 5824SOL    HW217716   3.525   6.746   6.086
 5825SOL     OW17717   2.684   5.591   6.101
 5825SOL    HW117718   2.724   5.674   6.076
 5825SOL    HW217719   2.590   5.610   6.105
 5826SOL     OW17720   2.053   6.555   6.837
 5826SOL    HW117721   2.131   6.502   6.822
 5826SOL    HW217722   1.980   6.499   6.809
 5827SOL     OW17723   3.397   6.586   5.784
 5827SOL    HW117724   3.328   6.528   5.816
 5827SOL    HW217725   3.441   6.618   5.863
 5828SOL     OW17726   3.324   6.989   6.534
 5828SOL    HW117727   3.254   0.013   6.595
 5828SOL    HW217728   3.302   6.900   6.507
 5829SOL     OW17729   2.456   6.298   5.859
 5829SOL    HW117730   2.458   6.382   5.814
 5829SOL    HW217731   2.391   6.309   5.928
 5830SOL     OW17732   3.138   5.952   6.518
 5830SOL    HW117733   3.049   5.917   6.528
 5830SOL    HW217734   3.191   5.900   6.579
 5831SOL     OW17735   2.661   6.182   0.059
 5831SOL    HW117736   2.596   6.229   0.111
 5831SOL    HW217737   2.610   6.136   6.992
 5832SOL     OW17738   2.860   5.980   6.801
 5832SOL    HW117739   2.783   6.027   6.833
 5832SOL    HW217740   2.829   5.935   6.722
 5833SOL     OW17741   2.916   6.285   6.010
 5833SOL    HW117742   2.935   6.279   6.103
 5833SOL    HW217743   2.832   6.240   5.999
 5834SOL     OW17744   1.951   6.404   6.367
 5834SOL    HW117745   2.031   6.402   6.419
 5834SOL    HW217746   1.903   6.480   6.399
 5835SOL     OW17747   2.762   5.936   5.782
 5835SOL    HW117748   2.802   6.000   5.723
 5835SOL    HW217749   2.769   5.852   5.737
 5836SOL     OW17750   3.254   6.722   6.142
 5836SOL    HW117751   3.329   6.715   6.082
 5836SOL    HW217752   3.209   6.801   6.113
 5837SOL     OW17753   2.412   5.759   6.484
 5837SOL    HW117754   2.417   5.793   6.573
 5837SOL    HW217755   2.413   5.838   6.429
 5838SOL     OW17756   3.671   6.632   6.453
 5838SOL    HW117757   3.619   6.621   6.373
 5838SOL    HW217758   3.606   6.633   6.524
 5839SOL     OW17759   2.175   6.550   5.847
 5839SOL    HW117760   2.257   6.564   5.801
 5839SOL    HW217761   2.143   6.466   5.814
 5840SOL     OW17762   3.344   6.336   6.305
 5840SOL    HW117763   3.343   6.295   6.391
 5840SOL    HW217764   3.423   6.391   6.305
 5841SOL     OW17765   3.505   6.967   5.676
 5841SOL    HW117766   3.473   0.056   5.690
 5841SOL    HW217767   3.425   6.915   5.661
 5842SOL     OW17768   3.261   5.693   6.029
 5842SOL    HW117769   3.255   5.667   5.937
 5842SOL    HW217770   3.356   5.697   6.046
 5843SOL     OW17771   2.259   6.278   6.058
 5843SOL    HW117772   2.275   6.185   6.072
 5843SOL    HW217773   2.166   6.290   6.076
 5844SOL     OW17774   2.509   5.702   5.687
 5844SOL    HW117775   2.566   5.628   5.707
 5844SOL    HW217776   2.455   5.672   5.615
 5845SOL     OW17777   2.793   6.094   6.484
 5845SOL    HW117778   2.766   6.086   6.393
 5845SOL    HW217779   2.825   6.007   6.508
 5846SOL     OW17780   2.416   5.649   6.081
 5846SOL    HW117781   2.337   5.649   6.133
 5846SOL    HW217782   2.407   5.726   6.024
 5847SOL     OW17783   3.279   6.789   5.646
 5847SOL    HW117784   3.330   6.721   5.689
 5847SOL    HW217785   3.195   6.747   5.626
 5848SOL     OW17786   2.150   5.634   5.772
 5848SOL    HW117787   2.207   5.699   5.730
 5848SOL    HW217788   2.211   5.573   5.814
 5849SOL     OW17789   2.805   5.836   6.040
 5849SOL    HW117790   2.781   5.874   5.956
 5849SOL    HW217791   2.900   5.851   6.048
 5850SOL     OW17792   3.144   0.153   6.324
 5850SOL    HW117793   3.101   0.226   6.279
 5850SOL    HW217794   3.124   0.166   6.416
 5851SOL     OW17795   2.334   6.710   6.322
 5851SOL    HW117796   2.266   6.705   6.389
 5851SOL    HW217797   2.287   6.713   6.239
 5852SOL     OW17798   2.887   6.117   5.613
 5852SOL    HW117799   2.844   6.200   5.594
 5852SOL    HW217800   2.951   6.139   5.681
 5853SOL     OW17801   2.423   5.812   6.757
 5853SOL    HW117802   2.465   5.734   6.793
 5853SOL    HW217803   2.332   5.807   6.786
 5854SOL     OW17804   2.726   6.042   6.223
 5854SOL    HW117805   2.685   6.099   6.158
 5854SOL    HW217806   2.751   5.964   6.175
 5855SOL     OW17807   2.881   5.637   6.327
 5855SOL    HW117808   2.821   5.631   6.253
 5855SOL    HW217809   2.857   5.564   6.384
 5856SOL     OW17810   3.292   6.732   6.442
 5856SOL    HW117811   3.222   6.667   6.446
 5856SOL    HW217812   3.312   6.741   6.348
 5857SOL     OW17813   3.329   6.193   6.546
 5857SOL    HW117814   3.271   6.118   6.556
 5857SOL    HW217815   3.388   6.189   6.622
 5858SOL     OW17816   3.702   6.391   5.973
 5858SOL    HW117817   3.760   6.343   6.031
 5858SOL    HW217818   3.679   6.328   5.904
 5859SOL     OW17819   3.552   6.831   6.229
 5859SOL    HW117820   3.644   6.847   6.252
 5859SOL    HW217821   3.507   6.911   6.254
 5860SOL     OW17822   3.255   6.159   5.657
 5860SOL    HW117823   3.194   6.137   5.727
 5860SOL    HW217824   3.340   6.129   5.689
 5861SOL     OW17825   2.387   5.847   5.895
 5861SOL    HW117826   2.438   5.804   5.827
 5861SOL    HW217827   2.359   5.930   5.855
 5862SOL     OW17828   3.611   6.780   0.160
 5862SOL    HW117829   3.692   6.768   0.210
 5862SOL    HW217830   3.603   6.875   0.149
 5863SOL     OW17831   2.924   6.897   6.933
 5863SOL    HW117832   2.835   6.878   6.962
 5863SOL    HW217833   2.980   6.865   0.003
 5864SOL     OW17834   2.997   6.762   6.700
 5864SOL    HW117835   2.967   6.819   6.771
 5864SOL    HW217836   2.958   6.799   6.621
 5865SOL     OW17837   3.481   6.661   6.644
 5865SOL    HW117838   3.473   6.720   6.718
 5865SOL    HW217839   3.406   6.682   6.588
 5866SOL     OW17840   2.568   6.643   5.952
 5866SOL    HW117841   2.558   6.630   6.046
 5866SOL    HW217842   2.646   6.592   5.929
 5867SOL     OW17843   2.289   6.401   6.850
 5867SOL    HW117844   2.339   6.423   6.928
 5867SOL    HW217845   2.256   6.313   6.865
 5868SOL     OW17846   3.127   5.976   6.857
 5868SOL    HW117847   3.153   6.050   6.913
 5868SOL    HW217848   3.036   5.994   6.833
 5869SOL     OW17849   2.192   6.708   6.083
 5869SOL    HW117850   2.245   6.773   6.037
 5869SOL    HW217851   2.185   6.635   6.022
 5870SOL     OW17852   2.408   6.117   6.445
 5870SOL    HW117853   2.421   6.176   6.371
 5870SOL    HW217854   2.478   6.141   6.506
 5871SOL     OW17855   3.438   6.206   6.070
 5871SOL    HW117856   3.390   6.249   6.140
 5871SOL    HW217857   3.485   6.276   6.025
 5872SOL     OW17858   2.451   6.455   6.624
 5872SOL    HW117859   2.473   6.548   6.615
 5872SOL    HW217860   2.393   6.451   6.700
 5873SOL     OW17861   3.207   6.440   6.606
 5873SOL    HW117862   3.120   6.425   6.568
 5873SOL    HW217863   3.253   6.358   6.590
 5874SOL     OW17864   3.060   6.113   5.847
 5874SOL    HW117865   3.069   6.035   5.902
 5874SOL    HW217866   3.018   6.177   5.904
 5875SOL     OW17867   2.163   5.783   6.836
 5875SOL    HW117868   2.122   5.808   6.919
 5875SOL    HW217869   2.148   5.688   6.830
 5876SOL     OW17870   1.910   6.901   6.876
 5876SOL    HW117871   1.952   6.840   6.937
 5876SOL    HW217872   1.925   6.987   6.916
 5877SOL     OW17873   2.583   6.209   6.638
 5877SOL    HW117874   2.661   6.198   6.583
 5877SOL    HW217875   2.556   6.299   6.622
 5878SOL     OW17876   2.173   5.647   6.210
 5878SOL    HW117877   2.147   5.737   6.230
 5878SOL    HW217878   2.180   5.604   6.296
 5879SOL     OW17879   3.486   5.968   5.943
 5879SOL    HW117880   3.514   5.902   6.006
 5879SOL    HW217881   3.461   6.043   5.996
 5880SOL     OW17882   2.889   6.343   6.552
 5880SOL    HW117883   2.886   6.358   6.646
 5880SOL    HW217884   2.865   6.251   6.540
 5881SOL     OW17885   3.386   5.858   5.711
 5881SOL    HW117886   3.325   5.792   5.741
 5881SOL    HW217887   3.422   5.895   5.791
 5882SOL     OW17888   3.146   6.408   5.609
 5882SOL    HW117889   3.188   6.323   5.617
 5882SOL    HW217890   3.179   6.444   5.527
 5883SOL     OW17891   2.172   6.395   6.533
 5883SOL    HW117892   2.264   6.415   6.519
 5883SOL    HW217893   2.172   6.303   6.562
 5884SOL     OW17894   2.195   6.119   6.606
 5884SOL    HW117895   2.157   6.033   6.590
 5884SOL    HW217896   2.271   6.122   6.547
 5885SOL     OW17897   3.004   5.829   0.061
 5885SOL    HW117898   3.082   5.832   0.116
 5885SOL    HW217899   3.031   5.868   6.978
 5886SOL     OW17900   1.894   6.893   5.758
 5886SOL    HW117901   1.807   6.919   5.729
 5886SOL    HW217902   1.880   6.811   5.806
 5887SOL     OW17903   2.853   6.367   6.826
 5887SOL    HW117904   2.912   6.316   6.882
 5887SOL    HW217905   2.768   6.359   6.870
 5888SOL     OW17906   1.917   6.140   6.722
 5888SOL    HW117907   1.961   6.111   6.642
 5888SOL    HW217908   1.988   6.170   6.778
 5889SOL     OW17909   2.680   6.155   5.955
 5889SOL    HW117910   2.686   6.081   5.894
 5889SOL    HW217911   2.605   6.206   5.924
 5890SOL     OW17912   3.509   6.196   6.753
 5890SOL    HW117913   3.498   6.141   6.831
 5890SOL    HW217914   3.600   6.185   6.728
 5891SOL     OW17915   2.540   6.050   6.852
 5891SOL    HW117916   2.503   5.968   6.819
 5891SOL    HW217917   2.548   6.106   6.775
 5892SOL     OW17918   2.318   6.076   5.763
 5892SOL    HW117919   2.379   6.145   5.790
 5892SOL    HW217920   2.233   6.120   5.756
 5893SOL     OW17921   2.043   6.727   0.042
 5893SOL    HW117922   2.019   6.675   0.119
 5893SOL    HW217923   2.044   6.664   6.970
 5894SOL     OW17924   3.181   6.607   6.825
 5894SOL    HW117925   3.210   6.547   6.756
 5894SOL    HW217926   3.114   6.661   6.783
 5895SOL     OW17927   3.181   6.446   5.885
 5895SOL    HW117928   3.111   6.413   5.941
 5895SOL    HW217929   3.150   6.430   5.796
 5896SOL     OW17930   1.943   6.864   6.605
 5896SOL    HW117931   1.927   6.871   6.699
 5896SOL    HW217932   1.876   6.804   6.573
 5897SOL     OW17933   3.585   5.746   6.089
 5897SOL    HW117934   3.655   5.729   6.026
 5897SOL    HW217935   3.568   5.661   6.129
 5898SOL     OW17936   3.138   6.511   6.261
 5898SOL    HW117937   3.211   6.449   6.272
 5898SOL    HW217938   3.175   6.582   6.210
 5899SOL     OW17939   2.668   6.839   0.015
 5899SOL    HW117940   2.669   6.852   0.110
 5899SOL    HW217941   2.586   6.878   6.986
 5900SOL     OW17942   3.705   5.762   6.560
 5900SOL    HW117943   3.735   5.674   6.537
 5900SOL    HW217944   3.617   5.768   6.521
 5901SOL     OW17945   2.116   5.897   6.300
 5901SOL    HW117946   2.030   5.932   6.276
 5901SOL    HW217947   2.116   5.896   6.396
 5902SOL     OW17948   3.120   0.208   5.582
 5902SOL    HW117949   3.112   0.150   5.658
 5902SOL    HW217950   3.031   0.215   5.548
 5903SOL     OW17951   2.649   6.578   6.939
 5903SOL    HW117952   2.689   6.572   6.852
 5903SOL    HW217953   2.665   6.668   6.966
 5904SOL     OW17954   2.780   6.495   5.869
 5904SOL    HW117955   2.845   6.534   5.811
 5904SOL    HW217956   2.829   6.430   5.919
 5905SOL     OW17957   2.263   6.889   6.992
 5905SOL    HW117958   2.246   6.957   0.058
 5905SOL    HW217959   2.193   6.825   0.006
 5906SOL     OW17960   3.473   6.826   6.859
 5906SOL    HW117961   3.550   6.842   6.912
 5906SOL    HW217962   3.401   6.815   6.922
 5907SOL     OW17963   2.926   6.707   6.315
 5907SOL    HW117964   2.850   6.658   6.346
 5907SOL    HW217965   2.988   6.641   6.284
 5908SOL     OW17966   2.883   5.826   6.543
 5908SOL    HW117967   2.882   5.779   6.460
 5908SOL    HW217968   2.882   5.758   6.610
 5909SOL     OW17969   3.560   6.014   6.954
 5909SOL    HW117970   3.636   6.008   0.012
 5909SOL    HW217971   3.551   5.926   6.916
 5910SOL     OW17972   2.540   5.772   0.086
 5910SOL    HW117973   2.627   5.734   0.073
 5910SOL    HW217974   2.557   5.858   0.125
 5911SOL     OW17975   1.943   5.912   5.616
 5911SOL    HW117976   1.857   5.893   5.579
 5911SOL    HW217977   1.973   5.990   5.570
 5912SOL     OW17978   1.922   5.739   5.885
 5912SOL    HW117979   1.909   5.818   5.832
 5912SOL    HW217980   2.007   5.705   5.858
 5913SOL     OW17981   3.333   6.860   0.331
 5913SOL    HW117982   3.388   6.785   0.355
 5913SOL    HW217983   3.318   6.850   0.237
 5914SOL     OW17984   3.569   6.464   6.826
 5914SOL    HW117985   3.534   6.378   6.801
 5914SOL    HW217986   3.532   6.525   6.763
 5915SOL     OW17987   3.078   5.905   6.042
 5915SOL    HW117988   3.139   5.832   6.037
 5915SOL    HW217989   3.107   5.956   6.118
 5916SOL     OW17990   2.445   6.320   6.261
 5916SOL    HW117991   2.487   6.405   6.247
 5916SOL    HW217992   2.382   6.312   6.190
 5917SOL     OW17993   3.645   6.506   0.088
 5917SOL    HW117994   3.620   6.598   0.104
 5917SOL    HW217995   3.615   6.489   6.999
 5918SOL     OW17996   2.733   6.554   6.442
 5918SOL    HW117997   2.784   6.481   6.478
 5918SOL    HW217998   2.698   6.599   6.519
 5919SOL     OW17999   2.955   6.588   5.683
 5919SOL    HW118000   2.919   6.633   5.606
 5919SOL    HW218001   3.016   6.524   5.647
 5920SOL     OW18002   1.977   6.830   6.261
 5920SOL    HW118003   1.989   6.771   6.335
 5920SOL    HW218004   2.031   6.791   6.191
 5921SOL     OW18005   3.677   5.758   6.836
 5921SOL    HW118006   3.649   5.666   6.831
 5921SOL    HW218007   3.690   5.784   6.744
 5922SOL     OW18008   2.289   6.017   6.111
 5922SOL    HW118009   2.321   5.947   6.054
 5922SOL    HW218010   2.239   5.973   6.179
 5923SOL     OW18011   3.521   0.045   6.713
 5923SOL    HW118012   3.466   0.038   6.635
 5923SOL    HW218013   3.505   6.963   6.761
 5924SOL     OW18014   2.178   6.139   6.879
 5924SOL    HW118015   2.243   6.083   6.922
 5924SOL    HW218016   2.194   6.126   6.785
 5925SOL     OW18017   3.295   5.825   6.703
 5925SOL    HW118018   3.318   5.746   6.752
 5925SOL    HW218019   3.244   5.877   6.765
 5926SOL     OW18020   2.878   5.599   6.702
 5926SOL    HW118021   2.828   5.531   6.658
 5926SOL    HW218022   2.964   5.560   6.718
 5927SOL     OW18023   2.613   6.909   5.850
 5927SOL    HW118024   2.595   6.818   5.873
 5927SOL    HW218025   2.651   6.947   5.929
 5928SOL     OW18026   3.221   5.636   5.760
 5928SOL    HW118027   3.256   5.565   5.707
 5928SOL    HW218028   3.132   5.610   5.780
 5929SOL     OW18029   3.158   6.049   6.263
 5929SOL    HW118030   3.105   6.130   6.267
 5929SOL    HW218031   3.152   6.013   6.351
 5930SOL     OW18032   3.447   5.782   6.472
 5930SOL    HW118033   3.390   5.808   6.544
 5930SOL    HW218034   3.447   5.858   6.413
 5931SOL     OW18035   1.899   6.647   5.897
 5931SOL    HW118036   1.993   6.644   5.878
 5931SOL    HW218037   1.877   6.557   5.920
 5932SOL     OW18038   3.944   0.653   0.140
 5932SOL    HW118039   3.855   0.629   0.167
 5932SOL    HW218040   3.949   0.628   0.048
 5933SOL     OW18041   3.948   0.306   0.993
 5933SOL    HW118042   3.986   0.263   1.070
 5933SOL    HW218043   3.871   0.254   0.972
 5934SOL     OW18044   3.728   0.394   0.633
 5934SOL    HW118045   3.647   0.417   0.679
 5934SOL    HW218046   3.702   0.322   0.574
 5935SOL     OW18047   4.293   1.299   1.187
 5935SOL    HW118048   4.208   1.305   1.142
 5935SOL    HW218049   4.310   1.388   1.217
 5936SOL     OW18050   5.298   1.516   0.710
 5936SOL    HW118051   5.254   1.490   0.791
 5936SOL    HW218052   5.228   1.515   0.644
 5937SOL     OW18053   4.856   0.698   0.694
 5937SOL    HW118054   4.905   0.779   0.683
 5937SOL    HW218055   4.807   0.710   0.776
 5938SOL     OW18056   5.517   0.580   0.197
 5938SOL    HW118057   5.451   0.632   0.151
 5938SOL    HW218058   5.466   0.519   0.250
 5939SOL     OW18059   4.467   1.136   1.049
 5939SOL    HW118060   4.402   1.175   1.108
 5939SOL    HW218061   4.507   1.211   1.005
 5940SOL     OW18062   4.600   0.760   1.824
 5940SOL    HW118063   4.588   0.831   1.888
 5940SOL    HW218064   4.622   0.805   1.742
 5941SOL     OW18065   4.410   0.994   0.645
 5941SOL    HW118066   4.476   0.988   0.714
 5941SOL    HW218067   4.342   1.050   0.682
 5942SOL     OW18068   4.438   1.149   1.822
 5942SOL    HW118069   4.486   1.226   1.852
 5942SOL    HW218070   4.359   1.185   1.781
 5943SOL     OW18071   4.056   1.414   1.067
 5943SOL    HW118072   3.981   1.374   1.022
 5943SOL    HW218073   4.099   1.466   0.999
 5944SOL     OW18074   5.182   1.503   1.363
 5944SOL    HW118075   5.237   1.581   1.372
 5944SOL    HW218076   5.113   1.514   1.429
 5945SOL     OW18077   4.166   0.398   1.481
 5945SOL    HW118078   4.248   0.351   1.490
 5945SOL    HW218079   4.099   0.330   1.487
 5946SOL     OW18080   5.335   0.460   0.731
 5946SOL    HW118081   5.281   0.487   0.657
 5946SOL    HW218082   5.334   0.536   0.790
 5947SOL     OW18083   3.940   1.722   0.472
 5947SOL    HW118084   3.962   1.798   0.525
 5947SOL    HW218085   4.023   1.697   0.431
 5948SOL     OW18086   4.862   1.343   1.695
 5948SOL    HW118087   4.904   1.335   1.781
 5948SOL    HW218088   4.810   1.263   1.686
 5949SOL     OW18089   3.932   1.446   0.530
 5949SOL    HW118090   3.921   1.540   0.539
 5949SOL    HW218091   3.880   1.409   0.602
 5950SOL     OW18092   3.990   1.094   0.888
 5950SOL    HW118093   3.986   1.005   0.923
 5950SOL    HW218094   3.932   1.144   0.944
 5951SOL     OW18095   4.323   1.793   1.427
 5951SOL    HW118096   4.243   1.775   1.475
 5951SOL    HW218097   4.349   1.881   1.454
 5952SOL     OW18098   4.306   0.963   0.148
 5952SOL    HW118099   4.363   0.985   0.074
 5952SOL    HW218100   4.342   1.011   0.222
 5953SOL     OW18101   5.297   0.127   1.439
 5953SOL    HW118102   5.323   0.216   1.414
 5953SOL    HW218103   5.307   0.125   1.535
 5954SOL     OW18104   3.843   0.654   0.557
 5954SOL    HW118105   3.815   0.566   0.580
 5954SOL    HW218106   3.834   0.704   0.638
 5955SOL     OW18107   5.559   1.761   0.348
 5955SOL    HW118108   5.631   1.736   0.406
 5955SOL    HW218109   5.568   1.856   0.339
 5956SOL     OW18110   3.732   1.583   0.135
 5956SOL    HW118111   3.664   1.517   0.125
 5956SOL    HW218112   3.717   1.621   0.222
 5957SOL     OW18113   5.415   0.913   0.649
 5957SOL    HW118114   5.494   0.867   0.622
 5957SOL    HW218115   5.392   0.969   0.575
 5958SOL     OW18116   5.377   1.094   0.444
 5958SOL    HW118117   5.442   1.114   0.378
 5958SOL    HW218118   5.389   1.162   0.511
 5959SOL     OW18119   3.844   0.751   1.581
 5959SOL    HW118120   3.933   0.787   1.582
 5959SOL    HW218121   3.788   0.828   1.576
 5960SOL     OW18122   4.341   1.389   0.741
 5960SOL    HW118123   4.296   1.305   0.749
 5960SOL    HW218124   4.330   1.413   0.649
 5961SOL     OW18125   5.007   1.235   1.421
 5961SOL    HW118126   5.037   1.166   1.360
 5961SOL    HW218127   5.068   1.229   1.495
 5962SOL     OW18128   4.550   0.027   0.525
 5962SOL    HW118129   4.584   0.114   0.505
 5962SOL    HW218130   4.455   0.038   0.525
 5963SOL     OW18131   3.911   0.959   1.284
 5963SOL    HW118132   3.997   0.922   1.268
 5963SOL    HW218133   3.854   0.920   1.217
 5964SOL     OW18134   5.205   1.030   0.211
 5964SOL    HW118135   5.145   0.966   0.248
 5964SOL    HW218136   5.292   1.001   0.239
 5965SOL     OW18137   4.905   1.814   1.627
 5965SOL    HW118138   4.911   1.876   1.555
 5965SOL    HW218139   4.924   1.729   1.588
 5966SOL     OW18140   4.043   0.269   1.783
 5966SOL    HW118141   4.100   0.332   1.827
 5966SOL    HW218142   3.964   0.267   1.837
 5967SOL     OW18143   5.191   1.420   0.944
 5967SOL    HW118144   5.125   1.435   1.012
 5967SOL    HW218145   5.179   1.328   0.919
 5968SOL     OW18146   5.366   1.762   0.586
 5968SOL    HW118147   5.350   1.730   0.497
 5968SOL    HW218148   5.355   1.685   0.641
 5969SOL     OW18149   4.323   0.711   0.264
 5969SOL    HW118150   4.326   0.800   0.227
 5969SOL    HW218151   4.261   0.717   0.337
 5970SOL     OW18152   5.007   0.374   0.951
 5970SOL    HW118153   4.915   0.350   0.958
 5970SOL    HW218154   5.051   0.321   1.018
 5971SOL     OW18155   5.295   1.677   0.319
 5971SOL    HW118156   5.386   1.706   0.314
 5971SOL    HW218157   5.268   1.669   0.228
 5972SOL     OW18158   4.516   0.622   1.452
 5972SOL    HW118159   4.490   0.592   1.539
 5972SOL    HW218160   4.484   0.554   1.393
 5973SOL     OW18161   5.120   0.480   1.680
 5973SOL    HW118162   5.124   0.520   1.767
 5973SOL    HW218163   5.172   0.400   1.687
 5974SOL     OW18164   4.673   0.885   1.587
 5974SOL    HW118165   4.728   0.817   1.547
 5974SOL    HW218166   4.624   0.922   1.514
 5975SOL     OW18167   4.718   0.414   1.230
 5975SOL    HW118168   4.631   0.432   1.264
 5975SOL    HW218169   4.703   0.371   1.146
 5976SOL     OW18170   4.784   0.699   0.424
 5976SOL    HW118171   4.803   0.696   0.518
 5976SOL    HW218172   4.698   0.658   0.416
 5977SOL     OW18173   3.811   0.819   0.776
 5977SOL    HW118174   3.890   0.816   0.829
 5977SOL    HW218175   3.762   0.894   0.811
 5978SOL     OW18176   3.847   1.875   1.584
 5978SOL    HW118177   3.851   1.852   1.677
 5978SOL    HW218178   3.765   1.837   1.553
 5979SOL     OW18179   4.607   0.372   0.211
 5979SOL    HW118180   4.639   0.421   0.135
 5979SOL    HW218181   4.594   0.283   0.179
 5980SOL     OW18182   5.426   0.570   1.831
 5980SOL    HW118183   5.392   0.645   1.781
 5980SOL    HW218184   5.450   0.506   1.764
 5981SOL     OW18185   5.111   1.140   0.556
 5981SOL    HW118186   5.190   1.128   0.503
 5981SOL    HW218187   5.057   1.201   0.506
 5982SOL     OW18188   4.225   0.187   0.910
 5982SOL    HW118189   4.265   0.219   0.992
 5982SOL    HW218190   4.247   0.254   0.845
 5983SOL     OW18191   4.720   1.438   0.474
 5983SOL    HW118192   4.690   1.515   0.424
 5983SOL    HW218193   4.693   1.457   0.564
 5984SOL     OW18194   4.078   1.815   0.872
 5984SOL    HW118195   4.122   1.731   0.877
 5984SOL    HW218196   4.146   1.880   0.890
 5985SOL     OW18197   5.527   1.046   0.877
 5985SOL    HW118198   5.477   1.029   0.797
 5985SOL    HW218199   5.461   1.054   0.946
 5986SOL     OW18200   4.949   1.541   1.514
 5986SOL    HW118201   4.938   1.469   1.575
 5986SOL    HW218202   4.883   1.526   1.446
 5987SOL     OW18203   4.035   0.952   0.229
 5987SOL    HW118204   4.124   0.964   0.196
 5987SOL    HW218205   4.014   0.861   0.210
 5988SOL     OW18206   5.206   0.750   0.723
 5988SOL    HW118207   5.204   0.714   0.812
 5988SOL    HW218208   5.283   0.806   0.722
 5989SOL     OW18209   4.195   1.270   1.739
 5989SOL    HW118210   4.169   1.275   1.647
 5989SOL    HW218211   4.112   1.266   1.787
 5990SOL     OW18212   4.846   1.770   0.242
 5990SOL    HW118213   4.778   1.724   0.290
 5990SOL    HW218214   4.878   1.705   0.179
 5991SOL     OW18215   3.910   0.268   1.521
 5991SOL    HW118216   3.861   0.349   1.509
 5991SOL    HW218217   3.941   0.273   1.612
 5992SOL     OW18218   5.376   1.432   0.110
 5992SOL    HW118219   5.320   1.501   0.073
 5992SOL    HW218220   5.320   1.387   0.173
 5993SOL     OW18221   4.205   1.696   0.384
 5993SOL    HW118222   4.237   1.778   0.422
 5993SOL    HW218223   4.253   1.687   0.302
 5994SOL     OW18224   5.150   0.136   0.419
 5994SOL    HW118225   5.141   0.053   0.372
 5994SOL    HW218226   5.241   0.139   0.446
 5995SOL     OW18227   3.981   1.790   1.226
 5995SOL    HW118228   4.030   1.716   1.263
 5995SOL    HW218229   3.968   1.766   1.134
 5996SOL     OW18230   4.665   1.701   0.896
 5996SOL    HW118231   4.744   1.652   0.916
 5996SOL    HW218232   4.623   1.650   0.826
 5997SOL     OW18233   4.125   0.690   0.465
 5997SOL    HW118234   4.139   0.597   0.484
 5997SOL    HW218235   4.032   0.704   0.483
 5998SOL     OW18236   5.246   0.228   1.722
 5998SOL    HW118237   5.267   0.230   1.816
 5998SOL    HW218238   5.157   0.194   1.718
 5999SOL     OW18239   4.345   0.130   0.098
 5999SOL    HW118240   4.439   0.116   0.112
 5999SOL    HW218241   4.337   0.151   0.005
 6000SOL     OW18242   4.491   0.280   1.769
 6000SOL    HW118243   4.574   0.235   1.759
 6000SOL    HW218244   4.443   0.229   1.834
 6001SOL     OW18245   4.598   1.523   1.196
 6001SOL    HW118246   4.581   1.485   1.110
 6001SOL    HW218247   4.668   1.469   1.232
 6002SOL     OW18248   5.064   0.592   1.435
 6002SOL    HW118249   5.095   0.562   1.520
 6002SOL    HW218250   5.101   0.680   1.426
 6003SOL     OW18251   4.543   1.388   0.949
 6003SOL    HW118252   4.627   1.377   0.906
 6003SOL    HW218253   4.480   1.396   0.877
 6004SOL     OW18254   4.655   0.512   0.898
 6004SOL    HW118255   4.627   0.506   0.806
 6004SOL    HW218256   4.685   0.424   0.920
 6005SOL     OW18257   4.283   0.065   0.496
 6005SOL    HW118258   4.204   0.054   0.549
 6005SOL    HW218259   4.262   0.137   0.436
 6006SOL     OW18260   5.139   1.216   0.006
 6006SOL    HW118261   5.166   1.142   0.060
 6006SOL    HW218262   5.062   1.251   0.050
 6007SOL     OW18263   4.042   0.067   0.199
 6007SOL    HW118264   4.094   0.147   0.207
 6007SOL    HW218265   4.068   0.014   0.274
 6008SOL     OW18266   4.671   0.266   0.459
 6008SOL    HW118267   4.645   0.305   0.376
 6008SOL    HW218268   4.767   0.273   0.460
 6009SOL     OW18269   4.806   0.687   1.455
 6009SOL    HW118270   4.742   0.616   1.467
 6009SOL    HW218271   4.891   0.643   1.453
 6010SOL     OW18272   4.939   1.572   0.799
 6010SOL    HW118273   4.953   1.636   0.728
 6010SOL    HW218274   5.012   1.587   0.859
 6011SOL     OW18275   4.200   1.154   0.728
 6011SOL    HW118276   4.131   1.133   0.790
 6011SOL    HW218277   4.159   1.143   0.642
 6012SOL     OW18278   4.978   1.786   0.614
 6012SOL    HW118279   5.029   1.852   0.567
 6012SOL    HW218280   4.907   1.835   0.655
 6013SOL     OW18281   4.788   0.574   0.027
 6013SOL    HW118282   4.701   0.607   0.050
 6013SOL    HW218283   4.835   0.570   0.109
 6014SOL     OW18284   3.816   0.544   1.404
 6014SOL    HW118285   3.905   0.552   1.370
 6014SOL    HW218286   3.807   0.618   1.464
 6015SOL     OW18287   4.291   0.244   1.178
 6015SOL    HW118288   4.334   0.171   1.222
 6015SOL    HW218289   4.199   0.239   1.204
 6016SOL     OW18290   4.589   0.463   0.640
 6016SOL    HW118291   4.550   0.519   0.574
 6016SOL    HW218292   4.614   0.383   0.593
 6017SOL     OW18293   4.690   0.022   0.772
 6017SOL    HW118294   4.634   0.025   0.694
 6017SOL    HW218295   4.747   6.947   0.757
 6018SOL     OW18296   5.165   1.160   0.859
 6018SOL    HW118297   5.093   1.097   0.858
 6018SOL    HW218298   5.192   1.167   0.767
 6019SOL     OW18299   5.189   0.613   0.967
 6019SOL    HW118300   5.133   0.535   0.971
 6019SOL    HW218301   5.248   0.604   1.042
 6020SOL     OW18302   5.547   0.803   0.397
 6020SOL    HW118303   5.610   0.744   0.438
 6020SOL    HW218304   5.545   0.776   0.305
 6021SOL     OW18305   4.201   1.428   0.154
 6021SOL    HW118306   4.144   1.378   0.213
 6021SOL    HW218307   4.158   1.422   0.069
 6022SOL     OW18308   5.401   1.263   0.652
 6022SOL    HW118309   5.496   1.262   0.664
 6022SOL    HW218310   5.376   1.355   0.666
 6023SOL     OW18311   5.118   0.554   0.062
 6023SOL    HW118312   5.066   0.544   0.142
 6023SOL    HW218313   5.182   0.484   0.066
 6024SOL     OW18314   4.227   0.259   0.305
 6024SOL    HW118315   4.282   0.214   0.240
 6024SOL    HW218316   4.210   0.345   0.265
 6025SOL     OW18317   5.471   1.243   1.559
 6025SOL    HW118318   5.558   1.205   1.549
 6025SOL    HW218319   5.487   1.332   1.589
 6026SOL     OW18320   4.777   1.355   1.333
 6026SOL    HW118321   4.701   1.322   1.382
 6026SOL    HW218322   4.852   1.311   1.374
 6027SOL     OW18323   5.333   1.629   1.660
 6027SOL    HW118324   5.324   1.663   1.571
 6027SOL    HW218325   5.415   1.578   1.658
 6028SOL     OW18326   4.862   1.215   1.102
 6028SOL    HW118327   4.799   1.251   1.165
 6028SOL    HW218328   4.833   1.248   1.017
 6029SOL     OW18329   5.344   1.094   1.075
 6029SOL    HW118330   5.336   1.158   1.146
 6029SOL    HW218331   5.271   1.114   1.017
 6030SOL     OW18332   4.612   0.150   1.391
 6030SOL    HW118333   4.631   0.123   1.301
 6030SOL    HW218334   4.697   0.174   1.427
 6031SOL     OW18335   4.708   1.115   1.723
 6031SOL    HW118336   4.617   1.131   1.748
 6031SOL    HW218337   4.705   1.037   1.669
 6032SOL     OW18338   4.436   1.061   0.373
 6032SOL    HW118339   4.420   1.040   0.466
 6032SOL    HW218340   4.512   1.008   0.350
 6033SOL     OW18341   4.147   0.823   1.252
 6033SOL    HW118342   4.215   0.831   1.319
 6033SOL    HW218343   4.112   0.734   1.264
 6034SOL     OW18344   4.982   0.374   1.292
 6034SOL    HW118345   5.016   0.452   1.335
 6034SOL    HW218346   4.892   0.396   1.269
 6035SOL     OW18347   3.799   1.574   1.358
 6035SOL    HW118348   3.769   1.642   1.299
 6035SOL    HW218349   3.894   1.573   1.348
 6036SOL     OW18350   4.081   1.116   0.486
 6036SOL    HW118351   4.067   1.189   0.427
 6036SOL    HW218352   4.081   1.039   0.429
 6037SOL     OW18353   4.275   0.533   0.857
 6037SOL    HW118354   4.289   0.591   0.783
 6037SOL    HW218355   4.343   0.557   0.920
 6038SOL     OW18356   4.971   1.342   0.405
 6038SOL    HW118357   5.021   1.417   0.439
 6038SOL    HW218358   4.881   1.358   0.435
 6039SOL     OW18359   5.016   1.462   1.148
 6039SOL    HW118360   5.070   1.466   1.227
 6039SOL    HW218361   4.962   1.384   1.161
 6040SOL     OW18362   5.309   0.634   0.486
 6040SOL    HW118363   5.253   0.682   0.547
 6040SOL    HW218364   5.369   0.699   0.450
 6041SOL     OW18365   4.070   1.531   1.307
 6041SOL    HW118366   4.059   1.485   1.225
 6041SOL    HW218367   4.164   1.542   1.317
 6042SOL     OW18368   4.147   0.742   1.607
 6042SOL    HW118369   4.205   0.788   1.547
 6042SOL    HW218370   4.190   0.658   1.622
 6043SOL     OW18371   5.335   0.783   1.689
 6043SOL    HW118372   5.249   0.824   1.682
 6043SOL    HW218373   5.387   0.824   1.619
 6044SOL     OW18374   4.723   0.133   1.729
 6044SOL    HW118375   4.766   0.163   1.649
 6044SOL    HW218376   4.721   0.037   1.722
 6045SOL     OW18377   4.186   0.032   1.761
 6045SOL    HW118378   4.113   6.970   1.770
 6045SOL    HW218379   4.145   0.118   1.763
 6046SOL     OW18380   4.310   0.876   1.031
 6046SOL    HW118381   4.343   0.966   1.035
 6046SOL    HW218382   4.252   0.869   1.108
 6047SOL     OW18383   5.067   0.859   1.020
 6047SOL    HW118384   4.981   0.842   0.981
 6047SOL    HW218385   5.114   0.776   1.010
 6048SOL     OW18386   4.922   0.519   0.266
 6048SOL    HW118387   4.936   0.445   0.325
 6048SOL    HW218388   4.884   0.587   0.321
 6049SOL     OW18389   4.028   0.208   1.249
 6049SOL    HW118390   3.965   0.214   1.320
 6049SOL    HW218391   4.019   0.119   1.215
 6050SOL     OW18392   3.769   1.312   1.274
 6050SOL    HW118393   3.802   1.256   1.345
 6050SOL    HW218394   3.775   1.401   1.309
 6051SOL     OW18395   4.447   0.634   1.051
 6051SOL    HW118396   4.523   0.622   0.993
 6051SOL    HW218397   4.415   0.722   1.032
 6052SOL     OW18398   5.466   0.959   1.861
 6052SOL    HW118399   5.423   0.892   1.808
 6052SOL    HW218400   5.404   0.978   1.932
 6053SOL     OW18401   4.041   0.058   0.620
 6053SOL    HW118402   4.021   0.146   0.652
 6053SOL    HW218403   3.981   0.002   0.668
 6054SOL     OW18404   5.351   0.402   0.349
 6054SOL    HW118405   5.382   0.333   0.408
 6054SOL    HW218406   5.328   0.474   0.407
 6055SOL     OW18407   4.754   0.759   0.958
 6055SOL    HW118408   4.744   0.776   1.052
 6055SOL    HW218409   4.727   0.668   0.947
 6056SOL     OW18410   4.704   1.565   1.723
 6056SOL    HW118411   4.688   1.609   1.640
 6056SOL    HW218412   4.749   1.484   1.699
 6057SOL     OW18413   5.573   1.500   1.603
 6057SOL    HW118414   5.596   1.528   1.515
 6057SOL    HW218415   5.654   1.513   1.654
 6058SOL     OW18416   4.075   0.916   1.809
 6058SOL    HW118417   4.155   0.935   1.858
 6058SOL    HW218418   4.103   0.852   1.744
 6059SOL     OW18419   5.237   0.279   0.134
 6059SOL    HW118420   5.177   0.210   0.160
 6059SOL    HW218421   5.270   0.316   0.216
 6060SOL     OW18422   5.015   0.818   0.038
 6060SOL    HW118423   5.063   0.736   0.024
 6060SOL    HW218424   5.039   0.873   6.963
 6061SOL     OW18425   4.793   1.339   0.859
 6061SOL    HW118426   4.800   1.268   0.795
 6061SOL    HW218427   4.850   1.408   0.823
 6062SOL     OW18428   4.031   0.815   0.945
 6062SOL    HW118429   4.124   0.835   0.937
 6062SOL    HW218430   4.029   0.724   0.976
 6063SOL     OW18431   4.059   0.545   1.013
 6063SOL    HW118432   4.019   0.459   1.000
 6063SOL    HW218433   4.136   0.544   0.956
 6064SOL     OW18434   4.850   0.420   1.666
 6064SOL    HW118435   4.806   0.456   1.743
 6064SOL    HW218436   4.942   0.443   1.677
 6065SOL     OW18437   4.855   0.218   1.492
 6065SOL    HW118438   4.855   0.295   1.549
 6065SOL    HW218439   4.913   0.242   1.419
 6066SOL     OW18440   3.815   1.779   0.945
 6066SOL    HW118441   3.783   1.703   0.896
 6066SOL    HW218442   3.903   1.795   0.911
 6067SOL     OW18443   4.214   1.575   0.904
 6067SOL    HW118444   4.284   1.636   0.928
 6067SOL    HW218445   4.257   1.511   0.846
 6068SOL     OW18446   4.695   0.787   1.223
 6068SOL    HW118447   4.755   0.768   1.295
 6068SOL    HW218448   4.612   0.747   1.249
 6069SOL     OW18449   3.760   0.547   1.122
 6069SOL    HW118450   3.834   0.535   1.063
 6069SOL    HW218451   3.798   0.545   1.210
 6070SOL     OW18452   3.909   0.533   1.732
 6070SOL    HW118453   3.989   0.514   1.682
 6070SOL    HW218454   3.870   0.607   1.685
 6071SOL     OW18455   5.106   0.932   1.657
 6071SOL    HW118456   5.127   1.025   1.652
 6071SOL    HW218457   5.102   0.904   1.565
 6072SOL     OW18458   4.542   0.578   0.383
 6072SOL    HW118459   4.551   0.504   0.323
 6072SOL    HW218460   4.466   0.626   0.350
 6073SOL     OW18461   5.364   0.602   1.178
 6073SOL    HW118462   5.352   0.542   1.252
 6073SOL    HW218463   5.452   0.583   1.146
 6074SOL     OW18464   3.960   1.548   1.722
 6074SOL    HW118465   3.940   1.611   1.790
 6074SOL    HW218466   3.968   1.464   1.768
 6075SOL     OW18467   4.441   0.457   1.254
 6075SOL    HW118468   4.385   0.385   1.229
 6075SOL    HW218469   4.434   0.520   1.182
 6076SOL     OW18470   4.642   1.679   1.474
 6076SOL    HW118471   4.620   1.637   1.390
 6076SOL    HW218472   4.638   1.773   1.456
 6077SOL     OW18473   4.175   0.496   0.177
 6077SOL    HW118474   4.237   0.563   0.206
 6077SOL    HW218475   4.089   0.539   0.183
 6078SOL     OW18476   3.863   1.144   1.476
 6078SOL    HW118477   3.866   1.099   1.560
 6078SOL    HW218478   3.880   1.076   1.411
 6079SOL     OW18479   5.042   1.043   1.219
 6079SOL    HW118480   5.062   0.979   1.150
 6079SOL    HW218481   4.978   1.101   1.179
 6080SOL     OW18482   5.025   0.846   0.312
 6080SOL    HW118483   4.949   0.809   0.355
 6080SOL    HW218484   5.014   0.824   0.220
 6081SOL     OW18485   5.507   1.734   1.161
 6081SOL    HW118486   5.566   1.761   1.090
 6081SOL    HW218487   5.477   1.647   1.136
 6082SOL     OW18488   4.964   1.733   1.104
 6082SOL    HW118489   5.047   1.758   1.063
 6082SOL    HW218490   4.974   1.640   1.125
 6083SOL     OW18491   3.812   1.267   1.009
 6083SOL    HW118492   3.792   1.280   1.102
 6083SOL    HW218493   3.742   1.210   0.978
 6084SOL     OW18494   4.405   1.673   1.741
 6084SOL    HW118495   4.344   1.747   1.731
 6084SOL    HW218496   4.474   1.689   1.678
 6085SOL     OW18497   4.616   0.113   0.127
 6085SOL    HW118498   4.705   0.132   0.099
 6085SOL    HW218499   4.624   0.036   0.184
 6086SOL     OW18500   5.450   0.186   0.487
 6086SOL    HW118501   5.519   0.155   0.429
 6086SOL    HW218502   5.437   0.114   0.549
 6087SOL     OW18503   5.113   1.561   0.496
 6087SOL    HW118504   5.173   1.594   0.429
 6087SOL    HW218505   5.062   1.638   0.523
 6088SOL     OW18506   3.864   1.796   1.842
 6088SOL    HW118507   3.815   1.728   1.888
 6088SOL    HW218508   3.911   1.843   1.912
 6089SOL     OW18509   5.002   0.925   0.675
 6089SOL    HW118510   5.075   0.865   0.686
 6089SOL    HW218511   5.038   0.998   0.624
 6090SOL     OW18512   4.526   1.278   1.422
 6090SOL    HW118513   4.498   1.320   1.504
 6090SOL    HW218514   4.455   1.297   1.360
 6091SOL     OW18515   4.401   1.609   0.191
 6091SOL    HW118516   4.397   1.655   0.107
 6091SOL    HW218517   4.345   1.532   0.179
 6092SOL     OW18518   5.342   1.728   1.393
 6092SOL    HW118519   5.397   1.732   1.315
 6092SOL    HW218520   5.328   1.820   1.416
 6093SOL     OW18521   5.595   0.159   0.952
 6093SOL    HW118522   5.582   0.065   0.958
 6093SOL    HW218523   5.508   0.195   0.938
 6094SOL     OW18524   3.982   0.311   0.712
 6094SOL    HW118525   3.895   0.345   0.690
 6094SOL    HW218526   3.985   0.314   0.808
 6095SOL     OW18527   4.942   1.597   0.042
 6095SOL    HW118528   4.934   1.505   0.067
 6095SOL    HW218529   4.858   1.618   0.002
 6096SOL     OW18530   4.547   1.008   1.376
 6096SOL    HW118531   4.590   1.000   1.291
 6096SOL    HW218532   4.543   1.102   1.392
 6097SOL     OW18533   4.646   0.915   0.293
 6097SOL    HW118534   4.698   0.942   0.218
 6097SOL    HW218535   4.699   0.848   0.336
 6098SOL     OW18536   5.210   1.653   0.042
 6098SOL    HW118537   5.116   1.632   0.040
 6098SOL    HW218538   5.232   1.673   6.951
 6099SOL     OW18539   4.090   1.307   1.494
 6099SOL    HW118540   4.079   1.382   1.435
 6099SOL    HW218541   4.014   1.252   1.478
 6100SOL     OW18542   5.329   1.284   1.278
 6100SOL    HW118543   5.390   1.268   1.350
 6100SOL    HW218544   5.269   1.351   1.312
 6101SOL     OW18545   4.788   1.111   0.712
 6101SOL    HW118546   4.714   1.062   0.749
 6101SOL    HW218547   4.851   1.043   0.687
 6102SOL     OW18548   4.752   0.248   0.946
 6102SOL    HW118549   4.729   0.196   0.869
 6102SOL    HW218550   4.738   0.189   1.020
 6103SOL     OW18551   4.342   1.477   0.486
 6103SOL    HW118552   4.375   1.432   0.408
 6103SOL    HW218553   4.280   1.542   0.453
 6104SOL     OW18554   5.455   0.388   1.377
 6104SOL    HW118555   5.524   0.454   1.382
 6104SOL    HW218556   5.493   0.317   1.325
 6105SOL     OW18557   4.008   1.316   0.310
 6105SOL    HW118558   3.926   1.297   0.264
 6105SOL    HW218559   3.983   1.368   0.386
 6106SOL     OW18560   3.841   1.041   1.731
 6106SOL    HW118561   3.764   1.010   1.778
 6106SOL    HW218562   3.914   0.992   1.769
 6107SOL     OW18563   4.389   0.240   1.513
 6107SOL    HW118564   4.466   0.218   1.461
 6107SOL    HW218565   4.423   0.272   1.596
 6108SOL     OW18566   3.835   0.337   0.035
 6108SOL    HW118567   3.786   0.283   6.973
 6108SOL    HW218568   3.875   0.405   6.981
 6109SOL     OW18569   5.149   0.859   1.397
 6109SOL    HW118570   5.098   0.919   1.342
 6109SOL    HW218571   5.237   0.861   1.359
 6110SOL     OW18572   3.792   0.165   0.297
 6110SOL    HW118573   3.787   0.244   0.243
 6110SOL    HW218574   3.871   0.120   0.267
 6111SOL     OW18575   4.909   1.339   0.126
 6111SOL    HW118576   4.815   1.326   0.112
 6111SOL    HW218577   4.921   1.328   0.220
 6112SOL     OW18578   4.345   0.832   1.436
 6112SOL    HW118579   4.402   0.908   1.421
 6112SOL    HW218580   4.405   0.758   1.444
 6113SOL     OW18581   5.207   1.789   0.984
 6113SOL    HW118582   5.232   1.858   0.922
 6113SOL    HW218583   5.290   1.755   1.016
 6114SOL     OW18584   4.440   0.557   1.704
 6114SOL    HW118585   4.486   0.619   1.760
 6114SOL    HW218586   4.459   0.471   1.742
 6115SOL     OW18587   5.198   1.193   1.627
 6115SOL    HW118588   5.187   1.209   1.721
 6115SOL    HW218589   5.290   1.213   1.610
 6116SOL     OW18590   4.093   1.742   1.567
 6116SOL    HW118591   4.011   1.789   1.550
 6116SOL    HW218592   4.065   1.659   1.606
 6117SOL     OW18593   5.387   0.879   1.255
 6117SOL    HW118594   5.384   0.794   1.211
 6117SOL    HW218595   5.376   0.943   1.184
 6118SOL     OW18596   4.946   0.316   0.450
 6118SOL    HW118597   5.015   0.251   0.441
 6118SOL    HW218598   4.970   0.365   0.529
 6119SOL     OW18599   4.311   0.733   0.671
 6119SOL    HW118600   4.350   0.820   0.658
 6119SOL    HW218601   4.246   0.726   0.600
 6120SOL     OW18602   5.473   0.368   1.652
 6120SOL    HW118603   5.465   0.381   1.557
 6120SOL    HW218604   5.402   0.308   1.674
 6121SOL     OW18605   5.476   0.933   1.510
 6121SOL    HW118606   5.462   1.026   1.523
 6121SOL    HW218607   5.455   0.918   1.418
 6122SOL     OW18608   4.630   1.381   0.054
 6122SOL    HW118609   4.572   1.360   0.127
 6122SOL    HW218610   4.628   1.476   0.048
 6123SOL     OW18611   4.388   1.782   0.937
 6123SOL    HW118612   4.369   1.874   0.919
 6123SOL    HW218613   4.483   1.775   0.931
 6124SOL     OW18614   4.595   0.973   0.854
 6124SOL    HW118615   4.645   0.900   0.892
 6124SOL    HW218616   4.554   1.015   0.930
 6125SOL     OW18617   4.804   0.984   0.077
 6125SOL    HW118618   4.821   1.043   0.004
 6125SOL    HW218619   4.877   0.922   0.075
 6126SOL     OW18620   5.570   1.554   0.840
 6126SOL    HW118621   5.490   1.541   0.789
 6126SOL    HW218622   5.567   1.485   0.906
 6127SOL     OW18623   3.947   1.296   1.850
 6127SOL    HW118624   3.893   1.226   1.813
 6127SOL    HW218625   3.914   1.307   1.939
 6128SOL     OW18626   3.801   1.225   0.663
 6128SOL    HW118627   3.835   1.183   0.742
 6128SOL    HW218628   3.854   1.189   0.592
 6129SOL     OW18629   4.410   1.409   1.632
 6129SOL    HW118630   4.331   1.367   1.666
 6129SOL    HW218631   4.408   1.498   1.669
 6130SOL     OW18632   5.576   0.190   1.239
 6130SOL    HW118633   5.506   0.129   1.218
 6130SOL    HW218634   5.610   0.218   1.153
 6131SOL     OW18635   4.151   0.430   0.523
 6131SOL    HW118636   4.179   0.358   0.467
 6131SOL    HW218637   4.101   0.388   0.593
 6132SOL     OW18638   5.418   1.487   1.092
 6132SOL    HW118639   5.341   1.467   1.040
 6132SOL    HW218640   5.422   1.416   1.157
 6133SOL     OW18641   4.059   0.565   1.291
 6133SOL    HW118642   4.112   0.506   1.345
 6133SOL    HW218643   4.078   0.539   1.201
 6134SOL     OW18644   4.556   1.580   0.676
 6134SOL    HW118645   4.536   1.646   0.610
 6134SOL    HW218646   4.482   1.520   0.674
 6135SOL     OW18647   5.132   0.214   1.131
 6135SOL    HW118648   5.209   0.176   1.173
 6135SOL    HW218649   5.086   0.259   1.202
 6136SOL     OW18650   4.696   0.060   1.136
 6136SOL    HW118651   4.644   6.996   1.087
 6136SOL    HW218652   4.747   0.007   1.197
 6137SOL     OW18653   4.513   1.319   0.304
 6137SOL    HW118654   4.478   1.232   0.324
 6137SOL    HW218655   4.583   1.332   0.367
 6138SOL     OW18656   4.344   1.557   1.288
 6138SOL    HW118657   4.344   1.639   1.337
 6138SOL    HW218658   4.432   1.550   1.252
 6139SOL     OW18659   5.077   0.049   0.137
 6139SOL    HW118660   5.069   6.960   0.105
 6139SOL    HW218661   4.992   0.089   0.121
 6140SOL     OW18662   4.991   0.451   0.683
 6140SOL    HW118663   4.947   0.536   0.682
 6140SOL    HW218664   5.010   0.434   0.775
 6141SOL     OW18665   5.347   0.258   0.916
 6141SOL    HW118666   5.259   0.239   0.948
 6141SOL    HW218667   5.333   0.320   0.844
 6142SOL     OW18668   3.802   1.066   0.334
 6142SOL    HW118669   3.887   1.031   0.307
 6142SOL    HW218670   3.752   0.988   0.360
 6143SOL     OW18671   4.618   1.662   0.352
 6143SOL    HW118672   4.543   1.638   0.296
 6143SOL    HW218673   4.586   1.735   0.405
 6144SOL     OW18674   3.943   0.625   1.994
 6144SOL    HW118675   3.856   0.617   2.033
 6144SOL    HW218676   3.930   0.604   1.901
 6145SOL     OW18677   3.946   0.308   2.857
 6145SOL    HW118678   3.985   0.264   2.932
 6145SOL    HW218679   3.869   0.255   2.835
 6146SOL     OW18680   3.733   0.397   2.491
 6146SOL    HW118681   3.648   0.411   2.533
 6146SOL    HW218682   3.716   0.330   2.425
 6147SOL     OW18683   4.292   1.299   3.049
 6147SOL    HW118684   4.208   1.304   3.004
 6147SOL    HW218685   4.310   1.388   3.077
 6148SOL     OW18686   5.299   1.515   2.570
 6148SOL    HW118687   5.255   1.491   2.652
 6148SOL    HW218688   5.229   1.519   2.505
 6149SOL     OW18689   4.857   0.700   2.557
 6149SOL    HW118690   4.905   0.782   2.544
 6149SOL    HW218691   4.809   0.713   2.638
 6150SOL     OW18692   5.502   0.601   2.086
 6150SOL    HW118693   5.477   0.597   1.993
 6150SOL    HW218694   5.462   0.524   2.125
 6151SOL     OW18695   4.465   1.136   2.910
 6151SOL    HW118696   4.402   1.175   2.970
 6151SOL    HW218697   4.506   1.210   2.866
 6152SOL     OW18698   4.600   0.760   3.687
 6152SOL    HW118699   4.590   0.830   3.751
 6152SOL    HW218700   4.622   0.805   3.606
 6153SOL     OW18701   4.410   0.997   2.505
 6153SOL    HW118702   4.476   0.989   2.574
 6153SOL    HW218703   4.342   1.052   2.544
 6154SOL     OW18704   4.437   1.147   3.682
 6154SOL    HW118705   4.485   1.224   3.714
 6154SOL    HW218706   4.357   1.182   3.643
 6155SOL     OW18707   4.054   1.418   2.928
 6155SOL    HW118708   3.981   1.378   2.881
 6155SOL    HW218709   4.100   1.469   2.862
 6156SOL     OW18710   5.182   1.503   3.225
 6156SOL    HW118711   5.237   1.581   3.234
 6156SOL    HW218712   5.115   1.514   3.292
 6157SOL     OW18713   4.165   0.399   3.343
 6157SOL    HW118714   4.248   0.352   3.352
 6157SOL    HW218715   4.098   0.331   3.349
 6158SOL     OW18716   5.337   0.456   2.588
 6158SOL    HW118717   5.288   0.487   2.512
 6158SOL    HW218718   5.334   0.529   2.650
 6159SOL     OW18719   3.943   1.717   2.329
 6159SOL    HW118720   3.966   1.791   2.385
 6159SOL    HW218721   4.017   1.708   2.269
 6160SOL     OW18722   4.861   1.343   3.559
 6160SOL    HW118723   4.904   1.335   3.644
 6160SOL    HW218724   4.810   1.263   3.550
 6161SOL     OW18725   3.960   1.446   2.398
 6161SOL    HW118726   3.939   1.540   2.398
 6161SOL    HW218727   3.901   1.409   2.463
 6162SOL     OW18728   3.992   1.093   2.754
 6162SOL    HW118729   3.992   1.003   2.788
 6162SOL    HW218730   3.932   1.140   2.812
 6163SOL     OW18731   4.318   1.791   3.282
 6163SOL    HW118732   4.246   1.778   3.343
 6163SOL    HW218733   4.362   1.870   3.313
 6164SOL     OW18734   4.300   0.986   2.004
 6164SOL    HW118735   4.349   1.029   1.934
 6164SOL    HW218736   4.340   1.017   2.085
 6165SOL     OW18737   5.297   0.127   3.301
 6165SOL    HW118738   5.322   0.216   3.276
 6165SOL    HW218739   5.309   0.125   3.396
 6166SOL     OW18740   3.844   0.657   2.423
 6166SOL    HW118741   3.816   0.568   2.444
 6166SOL    HW218742   3.836   0.705   2.506
 6167SOL     OW18743   5.568   1.752   2.192
 6167SOL    HW118744   5.638   1.728   2.252
 6167SOL    HW218745   5.584   1.844   2.171
 6168SOL     OW18746   3.765   1.589   1.983
 6168SOL    HW118747   3.746   1.497   2.002
 6168SOL    HW218748   3.738   1.636   2.061
 6169SOL     OW18749   5.414   0.919   2.509
 6169SOL    HW118750   5.496   0.874   2.486
 6169SOL    HW218751   5.393   0.970   2.431
 6170SOL     OW18752   5.375   1.102   2.292
 6170SOL    HW118753   5.461   1.101   2.251
 6170SOL    HW218754   5.382   1.166   2.363
 6171SOL     OW18755   3.846   0.750   3.441
 6171SOL    HW118756   3.936   0.784   3.446
 6171SOL    HW218757   3.791   0.828   3.441
 6172SOL     OW18758   4.338   1.393   2.598
 6172SOL    HW118759   4.295   1.308   2.605
 6172SOL    HW218760   4.323   1.420   2.507
 6173SOL     OW18761   5.008   1.235   3.282
 6173SOL    HW118762   5.038   1.166   3.222
 6173SOL    HW218763   5.068   1.229   3.357
 6174SOL     OW18764   4.551   0.027   2.384
 6174SOL    HW118765   4.585   0.114   2.363
 6174SOL    HW218766   4.456   0.037   2.386
 6175SOL     OW18767   3.911   0.961   3.139
 6175SOL    HW118768   3.998   0.923   3.126
 6175SOL    HW218769   3.854   0.909   3.083
 6176SOL     OW18770   5.255   1.001   2.063
 6176SOL    HW118771   5.186   0.943   2.096
 6176SOL    HW218772   5.298   1.034   2.142
 6177SOL     OW18773   4.902   1.812   3.487
 6177SOL    HW118774   4.917   1.874   3.415
 6177SOL    HW218775   4.923   1.727   3.450
 6178SOL     OW18776   4.043   0.269   3.644
 6178SOL    HW118777   4.101   0.330   3.690
 6178SOL    HW218778   3.964   0.267   3.698
 6179SOL     OW18779   5.191   1.420   2.805
 6179SOL    HW118780   5.125   1.436   2.874
 6179SOL    HW218781   5.178   1.329   2.780
 6180SOL     OW18782   5.374   1.759   2.438
 6180SOL    HW118783   5.358   1.724   2.350
 6180SOL    HW218784   5.360   1.685   2.497
 6181SOL     OW18785   4.316   0.715   2.132
 6181SOL    HW118786   4.318   0.800   2.088
 6181SOL    HW218787   4.251   0.725   2.202
 6182SOL     OW18788   5.007   0.375   2.813
 6182SOL    HW118789   4.915   0.350   2.820
 6182SOL    HW218790   5.051   0.322   2.880
 6183SOL     OW18791   5.302   1.673   2.174
 6183SOL    HW118792   5.394   1.697   2.165
 6183SOL    HW218793   5.273   1.657   2.084
 6184SOL     OW18794   4.515   0.623   3.315
 6184SOL    HW118795   4.490   0.592   3.402
 6184SOL    HW218796   4.484   0.554   3.256
 6185SOL     OW18797   5.121   0.480   3.542
 6185SOL    HW118798   5.124   0.520   3.629
 6185SOL    HW218799   5.172   0.400   3.550
 6186SOL     OW18800   4.674   0.884   3.449
 6186SOL    HW118801   4.729   0.817   3.410
 6186SOL    HW218802   4.623   0.920   3.376
 6187SOL     OW18803   4.718   0.415   3.092
 6187SOL    HW118804   4.631   0.432   3.126
 6187SOL    HW218805   4.703   0.368   3.010
 6188SOL     OW18806   4.780   0.698   2.286
 6188SOL    HW118807   4.797   0.693   2.380
 6188SOL    HW218808   4.695   0.655   2.275
 6189SOL     OW18809   3.813   0.822   2.641
 6189SOL    HW118810   3.894   0.815   2.692
 6189SOL    HW218811   3.769   0.899   2.677
 6190SOL     OW18812   4.613   0.356   2.062
 6190SOL    HW118813   4.660   0.411   2.000
 6190SOL    HW218814   4.581   0.283   2.009
 6191SOL     OW18815   5.426   0.569   3.693
 6191SOL    HW118816   5.392   0.644   3.644
 6191SOL    HW218817   5.451   0.506   3.625
 6192SOL     OW18818   5.106   1.142   2.400
 6192SOL    HW118819   5.186   1.131   2.348
 6192SOL    HW218820   5.053   1.204   2.350
 6193SOL     OW18821   4.222   0.186   2.773
 6193SOL    HW118822   4.263   0.219   2.853
 6193SOL    HW218823   4.246   0.250   2.706
 6194SOL     OW18824   4.723   1.445   2.329
 6194SOL    HW118825   4.693   1.520   2.279
 6194SOL    HW218826   4.700   1.465   2.420
 6195SOL     OW18827   4.079   1.818   2.738
 6195SOL    HW118828   4.123   1.734   2.743
 6195SOL    HW218829   4.149   1.883   2.745
 6196SOL     OW18830   5.525   1.050   2.736
 6196SOL    HW118831   5.474   1.031   2.658
 6196SOL    HW218832   5.461   1.057   2.806
 6197SOL     OW18833   4.948   1.541   3.376
 6197SOL    HW118834   4.938   1.470   3.440
 6197SOL    HW218835   4.886   1.520   3.306
 6198SOL     OW18836   4.035   0.960   2.117
 6198SOL    HW118837   4.118   0.980   2.074
 6198SOL    HW218838   4.007   0.877   2.080
 6199SOL     OW18839   5.206   0.753   2.585
 6199SOL    HW118840   5.203   0.713   2.672
 6199SOL    HW218841   5.284   0.808   2.586
 6200SOL     OW18842   4.197   1.270   3.603
 6200SOL    HW118843   4.169   1.276   3.512
 6200SOL    HW218844   4.115   1.262   3.652
 6201SOL     OW18845   4.849   1.777   2.091
 6201SOL    HW118846   4.773   1.738   2.133
 6201SOL    HW218847   4.874   1.714   2.023
 6202SOL     OW18848   3.911   0.267   3.385
 6202SOL    HW118849   3.859   0.347   3.375
 6202SOL    HW218850   3.944   0.270   3.474
 6203SOL     OW18851   5.352   1.383   1.956
 6203SOL    HW118852   5.311   1.468   1.939
 6203SOL    HW218853   5.285   1.319   1.932
 6204SOL     OW18854   4.186   1.737   2.180
 6204SOL    HW118855   4.233   1.792   2.243
 6204SOL    HW218856   4.255   1.701   2.124
 6205SOL     OW18857   5.149   0.140   2.289
 6205SOL    HW118858   5.135   0.092   2.208
 6205SOL    HW218859   5.244   0.142   2.300
 6206SOL     OW18860   3.962   1.787   3.092
 6206SOL    HW118861   4.030   1.726   3.118
 6206SOL    HW218862   3.962   1.786   2.997
 6207SOL     OW18863   4.663   1.699   2.757
 6207SOL    HW118864   4.745   1.653   2.775
 6207SOL    HW218865   4.623   1.649   2.686
 6208SOL     OW18866   4.121   0.691   2.335
 6208SOL    HW118867   4.138   0.598   2.348
 6208SOL    HW218868   4.027   0.701   2.351
 6209SOL     OW18869   5.247   0.229   3.585
 6209SOL    HW118870   5.267   0.230   3.678
 6209SOL    HW218871   5.158   0.194   3.580
 6210SOL     OW18872   4.377   0.112   1.961
 6210SOL    HW118873   4.411   0.040   2.015
 6210SOL    HW218874   4.312   0.071   1.904
 6211SOL     OW18875   4.491   0.280   3.630
 6211SOL    HW118876   4.575   0.235   3.621
 6211SOL    HW218877   4.444   0.229   3.695
 6212SOL     OW18878   4.598   1.521   3.058
 6212SOL    HW118879   4.583   1.484   2.972
 6212SOL    HW218880   4.669   1.469   3.095
 6213SOL     OW18881   5.064   0.593   3.298
 6213SOL    HW118882   5.095   0.562   3.383
 6213SOL    HW218883   5.102   0.680   3.289
 6214SOL     OW18884   4.541   1.387   2.810
 6214SOL    HW118885   4.627   1.377   2.768
 6214SOL    HW218886   4.480   1.396   2.736
 6215SOL     OW18887   4.654   0.513   2.758
 6215SOL    HW118888   4.627   0.506   2.666
 6215SOL    HW218889   4.684   0.425   2.780
 6216SOL     OW18890   4.284   0.067   2.357
 6216SOL    HW118891   4.205   0.056   2.410
 6216SOL    HW218892   4.262   0.136   2.294
 6217SOL     OW18893   5.153   1.202   1.900
 6217SOL    HW118894   5.182   1.127   1.952
 6217SOL    HW218895   5.067   1.224   1.936
 6218SOL     OW18896   4.043   0.060   2.049
 6218SOL    HW118897   4.088   0.141   2.073
 6218SOL    HW218898   4.074   6.995   2.113
 6219SOL     OW18899   4.670   0.268   2.317
 6219SOL    HW118900   4.646   0.299   2.230
 6219SOL    HW218901   4.766   0.276   2.320
 6220SOL     OW18902   4.806   0.687   3.316
 6220SOL    HW118903   4.744   0.615   3.331
 6220SOL    HW218904   4.891   0.644   3.315
 6221SOL     OW18905   4.938   1.577   2.659
 6221SOL    HW118906   4.954   1.640   2.589
 6221SOL    HW218907   5.011   1.589   2.720
 6222SOL     OW18908   4.197   1.155   2.587
 6222SOL    HW118909   4.131   1.134   2.653
 6222SOL    HW218910   4.152   1.143   2.503
 6223SOL     OW18911   4.987   1.792   2.475
 6223SOL    HW118912   5.036   1.853   2.420
 6223SOL    HW218913   4.919   1.846   2.515
 6224SOL     OW18914   4.744   0.533   1.895
 6224SOL    HW118915   4.702   0.617   1.875
 6224SOL    HW218916   4.811   0.555   1.960
 6225SOL     OW18917   3.816   0.545   3.264
 6225SOL    HW118918   3.905   0.551   3.231
 6225SOL    HW218919   3.807   0.618   3.325
 6226SOL     OW18920   4.292   0.245   3.039
 6226SOL    HW118921   4.334   0.170   3.081
 6226SOL    HW218922   4.200   0.239   3.067
 6227SOL     OW18923   4.589   0.466   2.498
 6227SOL    HW118924   4.544   0.521   2.434
 6227SOL    HW218925   4.614   0.387   2.450
 6228SOL     OW18926   4.689   0.023   2.632
 6228SOL    HW118927   4.634   0.026   2.554
 6228SOL    HW218928   4.747   6.948   2.619
 6229SOL     OW18929   5.164   1.160   2.718
 6229SOL    HW118930   5.093   1.095   2.718
 6229SOL    HW218931   5.189   1.167   2.626
 6230SOL     OW18932   5.189   0.612   2.828
 6230SOL    HW118933   5.133   0.534   2.832
 6230SOL    HW218934   5.248   0.604   2.902
 6231SOL     OW18935   5.562   0.810   2.249
 6231SOL    HW118936   5.622   0.762   2.306
 6231SOL    HW218937   5.539   0.747   2.180
 6232SOL     OW18938   4.213   1.423   2.012
 6232SOL    HW118939   4.137   1.393   2.062
 6232SOL    HW218940   4.211   1.370   1.932
 6233SOL     OW18941   5.403   1.264   2.504
 6233SOL    HW118942   5.498   1.262   2.518
 6233SOL    HW218943   5.378   1.353   2.524
 6234SOL     OW18944   5.119   0.574   1.935
 6234SOL    HW118945   5.057   0.552   2.004
 6234SOL    HW218946   5.205   0.560   1.975
 6235SOL     OW18947   4.234   0.255   2.158
 6235SOL    HW118948   4.300   0.218   2.099
 6235SOL    HW218949   4.216   0.342   2.122
 6236SOL     OW18950   5.470   1.243   3.420
 6236SOL    HW118951   5.558   1.205   3.412
 6236SOL    HW218952   5.486   1.333   3.451
 6237SOL     OW18953   4.779   1.356   3.197
 6237SOL    HW118954   4.703   1.323   3.244
 6237SOL    HW218955   4.854   1.312   3.236
 6238SOL     OW18956   5.332   1.629   3.521
 6238SOL    HW118957   5.324   1.663   3.432
 6238SOL    HW218958   5.413   1.578   3.520
 6239SOL     OW18959   4.862   1.216   2.964
 6239SOL    HW118960   4.799   1.251   3.027
 6239SOL    HW218961   4.833   1.249   2.879
 6240SOL     OW18962   5.345   1.094   2.937
 6240SOL    HW118963   5.337   1.157   3.009
 6240SOL    HW218964   5.270   1.114   2.880
 6241SOL     OW18965   4.612   0.151   3.253
 6241SOL    HW118966   4.631   0.121   3.164
 6241SOL    HW218967   4.697   0.175   3.290
 6242SOL     OW18968   4.708   1.116   3.584
 6242SOL    HW118969   4.616   1.131   3.609
 6242SOL    HW218970   4.705   1.037   3.531
 6243SOL     OW18971   4.435   1.063   2.233
 6243SOL    HW118972   4.420   1.042   2.325
 6243SOL    HW218973   4.510   1.010   2.208
 6244SOL     OW18974   4.147   0.824   3.115
 6244SOL    HW118975   4.215   0.831   3.182
 6244SOL    HW218976   4.113   0.735   3.125
 6245SOL     OW18977   4.982   0.374   3.155
 6245SOL    HW118978   5.016   0.453   3.198
 6245SOL    HW218979   4.892   0.397   3.131
 6246SOL     OW18980   3.806   1.572   3.227
 6246SOL    HW118981   3.777   1.634   3.160
 6246SOL    HW218982   3.900   1.562   3.212
 6247SOL     OW18983   4.056   1.122   2.351
 6247SOL    HW118984   4.061   1.194   2.288
 6247SOL    HW218985   4.055   1.043   2.297
 6248SOL     OW18986   4.275   0.534   2.720
 6248SOL    HW118987   4.289   0.593   2.645
 6248SOL    HW218988   4.344   0.557   2.782
 6249SOL     OW18989   4.971   1.350   2.253
 6249SOL    HW118990   5.027   1.421   2.285
 6249SOL    HW218991   4.884   1.372   2.286
 6250SOL     OW18992   5.016   1.461   3.010
 6250SOL    HW118993   5.071   1.466   3.089
 6250SOL    HW218994   4.964   1.382   3.023
 6251SOL     OW18995   5.295   0.621   2.350
 6251SOL    HW118996   5.246   0.675   2.412
 6251SOL    HW218997   5.345   0.683   2.298
 6252SOL     OW18998   4.072   1.529   3.172
 6252SOL    HW118999   4.059   1.485   3.088
 6252SOL    HW219000   4.166   1.539   3.180
 6253SOL     OW19001   4.146   0.742   3.469
 6253SOL    HW119002   4.206   0.787   3.409
 6253SOL    HW219003   4.188   0.657   3.485
 6254SOL     OW19004   5.335   0.783   3.552
 6254SOL    HW119005   5.249   0.823   3.545
 6254SOL    HW219006   5.386   0.824   3.482
 6255SOL     OW19007   4.725   0.133   3.592
 6255SOL    HW119008   4.767   0.162   3.511
 6255SOL    HW219009   4.721   0.038   3.584
 6256SOL     OW19010   4.185   0.032   3.622
 6256SOL    HW119011   4.112   6.970   3.631
 6256SOL    HW219012   4.145   0.118   3.624
 6257SOL     OW19013   4.310   0.877   2.894
 6257SOL    HW119014   4.346   0.965   2.899
 6257SOL    HW219015   4.253   0.869   2.971
 6258SOL     OW19016   5.067   0.859   2.881
 6258SOL    HW119017   4.980   0.840   2.845
 6258SOL    HW219018   5.114   0.776   2.872
 6259SOL     OW19019   4.924   0.528   2.123
 6259SOL    HW119020   4.931   0.449   2.177
 6259SOL    HW219021   4.881   0.592   2.180
 6260SOL     OW19022   4.029   0.209   3.111
 6260SOL    HW119023   3.965   0.213   3.183
 6260SOL    HW219024   4.021   0.120   3.077
 6261SOL     OW19025   3.776   1.311   3.132
 6261SOL    HW119026   3.804   1.251   3.201
 6261SOL    HW219027   3.777   1.398   3.173
 6262SOL     OW19028   4.448   0.634   2.913
 6262SOL    HW119029   4.523   0.621   2.855
 6262SOL    HW219030   4.417   0.722   2.892
 6263SOL     OW19031   5.465   0.960   3.723
 6263SOL    HW119032   5.422   0.892   3.671
 6263SOL    HW219033   5.404   0.978   3.794
 6264SOL     OW19034   4.045   0.059   2.486
 6264SOL    HW119035   4.024   0.147   2.517
 6264SOL    HW219036   3.986   0.001   2.534
 6265SOL     OW19037   5.345   0.396   2.198
 6265SOL    HW119038   5.375   0.324   2.254
 6265SOL    HW219039   5.317   0.464   2.260
 6266SOL     OW19040   4.754   0.760   2.820
 6266SOL    HW119041   4.744   0.776   2.914
 6266SOL    HW219042   4.727   0.669   2.808
 6267SOL     OW19043   4.703   1.565   3.587
 6267SOL    HW119044   4.687   1.608   3.503
 6267SOL    HW219045   4.747   1.483   3.564
 6268SOL     OW19046   5.573   1.501   3.465
 6268SOL    HW119047   5.596   1.528   3.377
 6268SOL    HW219048   5.653   1.513   3.517
 6269SOL     OW19049   4.075   0.921   3.666
 6269SOL    HW119050   4.153   0.937   3.720
 6269SOL    HW219051   4.103   0.855   3.603
 6270SOL     OW19052   5.265   0.228   1.994
 6270SOL    HW119053   5.170   0.228   2.006
 6270SOL    HW219054   5.299   0.288   2.061
 6271SOL     OW19055   5.009   0.824   1.889
 6271SOL    HW119056   5.051   0.738   1.893
 6271SOL    HW219057   5.042   0.863   1.808
 6272SOL     OW19058   4.792   1.341   2.721
 6272SOL    HW119059   4.799   1.269   2.658
 6272SOL    HW219060   4.849   1.409   2.685
 6273SOL     OW19061   4.034   0.816   2.807
 6273SOL    HW119062   4.128   0.834   2.801
 6273SOL    HW219063   4.029   0.725   2.838
 6274SOL     OW19064   4.059   0.546   2.875
 6274SOL    HW119065   4.018   0.460   2.862
 6274SOL    HW219066   4.136   0.545   2.818
 6275SOL     OW19067   4.849   0.424   3.525
 6275SOL    HW119068   4.806   0.457   3.603
 6275SOL    HW219069   4.942   0.444   3.538
 6276SOL     OW19070   4.854   0.219   3.354
 6276SOL    HW119071   4.854   0.297   3.410
 6276SOL    HW219072   4.913   0.242   3.282
 6277SOL     OW19073   3.733   1.315   2.057
 6277SOL    HW119074   3.646   1.333   2.022
 6277SOL    HW219075   3.728   1.226   2.091
 6278SOL     OW19076   3.815   1.784   2.806
 6278SOL    HW119077   3.782   1.707   2.761
 6278SOL    HW219078   3.904   1.796   2.772
 6279SOL     OW19079   4.215   1.577   2.767
 6279SOL    HW119080   4.286   1.637   2.793
 6279SOL    HW219081   4.257   1.514   2.708
 6280SOL     OW19082   4.694   0.788   3.085
 6280SOL    HW119083   4.754   0.767   3.157
 6280SOL    HW219084   4.612   0.745   3.109
 6281SOL     OW19085   3.760   0.552   2.983
 6281SOL    HW119086   3.833   0.532   2.924
 6281SOL    HW219087   3.797   0.546   3.071
 6282SOL     OW19088   3.907   0.533   3.595
 6282SOL    HW119089   3.987   0.511   3.546
 6282SOL    HW219090   3.869   0.607   3.547
 6283SOL     OW19091   5.106   0.932   3.519
 6283SOL    HW119092   5.127   1.026   3.515
 6283SOL    HW219093   5.102   0.904   3.427
 6284SOL     OW19094   4.541   0.575   2.230
 6284SOL    HW119095   4.548   0.500   2.171
 6284SOL    HW219096   4.466   0.624   2.197
 6285SOL     OW19097   5.364   0.603   3.040
 6285SOL    HW119098   5.351   0.542   3.113
 6285SOL    HW219099   5.452   0.584   3.008
 6286SOL     OW19100   3.950   1.553   3.613
 6286SOL    HW119101   3.918   1.582   3.698
 6286SOL    HW219102   3.973   1.461   3.626
 6287SOL     OW19103   4.442   0.458   3.117
 6287SOL    HW119104   4.385   0.385   3.092
 6287SOL    HW219105   4.434   0.520   3.044
 6288SOL     OW19106   4.636   1.676   3.339
 6288SOL    HW119107   4.618   1.634   3.255
 6288SOL    HW219108   4.646   1.769   3.319
 6289SOL     OW19109   4.182   0.491   2.035
 6289SOL    HW119110   4.242   0.561   2.061
 6289SOL    HW219111   4.096   0.534   2.028
 6290SOL     OW19112   3.863   1.143   3.335
 6290SOL    HW119113   3.867   1.098   3.419
 6290SOL    HW219114   3.881   1.074   3.270
 6291SOL     OW19115   5.042   1.043   3.080
 6291SOL    HW119116   5.062   0.979   3.011
 6291SOL    HW219117   4.978   1.101   3.040
 6292SOL     OW19118   5.041   0.855   2.164
 6292SOL    HW119119   4.967   0.825   2.216
 6292SOL    HW219120   5.014   0.843   2.073
 6293SOL     OW19121   5.505   1.734   3.021
 6293SOL    HW119122   5.565   1.761   2.951
 6293SOL    HW219123   5.477   1.646   2.997
 6294SOL     OW19124   4.964   1.732   2.965
 6294SOL    HW119125   5.047   1.757   2.925
 6294SOL    HW219126   4.975   1.639   2.986
 6295SOL     OW19127   3.803   1.277   2.864
 6295SOL    HW119128   3.789   1.285   2.958
 6295SOL    HW219129   3.740   1.211   2.836
 6296SOL     OW19130   4.407   1.672   3.601
 6296SOL    HW119131   4.354   1.751   3.592
 6296SOL    HW219132   4.481   1.686   3.543
 6297SOL     OW19133   5.432   0.175   2.332
 6297SOL    HW119134   5.512   0.156   2.282
 6297SOL    HW219135   5.435   0.113   2.405
 6298SOL     OW19136   5.118   1.567   2.355
 6298SOL    HW119137   5.176   1.601   2.286
 6298SOL    HW219138   5.067   1.643   2.383
 6299SOL     OW19139   5.002   0.930   2.533
 6299SOL    HW119140   5.076   0.870   2.545
 6299SOL    HW219141   5.037   1.001   2.479
 6300SOL     OW19142   4.527   1.277   3.282
 6300SOL    HW119143   4.499   1.319   3.363
 6300SOL    HW219144   4.456   1.294   3.220
 6301SOL     OW19145   4.392   1.627   2.018
 6301SOL    HW119146   4.406   1.642   1.925
 6301SOL    HW219147   4.337   1.549   2.022
 6302SOL     OW19148   5.341   1.728   3.254
 6302SOL    HW119149   5.397   1.732   3.176
 6302SOL    HW219150   5.327   1.820   3.278
 6303SOL     OW19151   5.595   0.159   2.815
 6303SOL    HW119152   5.582   0.065   2.819
 6303SOL    HW219153   5.507   0.195   2.802
 6304SOL     OW19154   3.984   0.312   2.575
 6304SOL    HW119155   3.898   0.347   2.553
 6304SOL    HW219156   3.986   0.314   2.671
 6305SOL     OW19157   4.932   1.600   1.896
 6305SOL    HW119158   4.921   1.508   1.921
 6305SOL    HW219159   4.866   1.614   1.828
 6306SOL     OW19160   4.547   1.006   3.239
 6306SOL    HW119161   4.593   0.995   3.156
 6306SOL    HW219162   4.545   1.101   3.253
 6307SOL     OW19163   4.642   0.912   2.155
 6307SOL    HW119164   4.701   0.944   2.087
 6307SOL    HW219165   4.692   0.843   2.199
 6308SOL     OW19166   5.212   1.631   1.908
 6308SOL    HW119167   5.118   1.619   1.892
 6308SOL    HW219168   5.251   1.636   1.821
 6309SOL     OW19169   4.083   1.312   3.363
 6309SOL    HW119170   4.080   1.378   3.294
 6309SOL    HW219171   4.011   1.252   3.343
 6310SOL     OW19172   5.330   1.284   3.140
 6310SOL    HW119173   5.390   1.267   3.213
 6310SOL    HW219174   5.270   1.351   3.174
 6311SOL     OW19175   4.788   1.112   2.576
 6311SOL    HW119176   4.714   1.061   2.611
 6311SOL    HW219177   4.852   1.046   2.549
 6312SOL     OW19178   4.751   0.248   2.808
 6312SOL    HW119179   4.729   0.197   2.730
 6312SOL    HW219180   4.738   0.189   2.881
 6313SOL     OW19181   4.331   1.489   2.343
 6313SOL    HW119182   4.382   1.438   2.280
 6313SOL    HW219183   4.255   1.520   2.293
 6314SOL     OW19184   5.455   0.389   3.239
 6314SOL    HW119185   5.524   0.454   3.244
 6314SOL    HW219186   5.492   0.317   3.187
 6315SOL     OW19187   3.989   1.340   2.156
 6315SOL    HW119188   3.897   1.337   2.130
 6315SOL    HW219189   3.988   1.382   2.242
 6316SOL     OW19190   3.838   1.042   3.591
 6316SOL    HW119191   3.762   1.011   3.640
 6316SOL    HW219192   3.912   0.995   3.629
 6317SOL     OW19193   4.388   0.241   3.375
 6317SOL    HW119194   4.466   0.218   3.323
 6317SOL    HW219195   4.423   0.273   3.458
 6318SOL     OW19196   3.799   0.333   1.898
 6318SOL    HW119197   3.708   0.316   1.874
 6318SOL    HW219198   3.824   0.409   1.846
 6319SOL     OW19199   5.149   0.859   3.259
 6319SOL    HW119200   5.099   0.919   3.204
 6319SOL    HW219201   5.237   0.861   3.222
 6320SOL     OW19202   3.793   0.176   2.170
 6320SOL    HW119203   3.801   0.240   2.100
 6320SOL    HW219204   3.840   0.099   2.139
 6321SOL     OW19205   4.902   1.332   1.980
 6321SOL    HW119206   4.812   1.302   1.981
 6321SOL    HW219207   4.928   1.334   2.072
 6322SOL     OW19208   4.344   0.833   3.299
 6322SOL    HW119209   4.402   0.907   3.283
 6322SOL    HW219210   4.403   0.758   3.307
 6323SOL     OW19211   5.208   1.788   2.847
 6323SOL    HW119212   5.231   1.855   2.782
 6323SOL    HW219213   5.292   1.757   2.879
 6324SOL     OW19214   4.440   0.557   3.566
 6324SOL    HW119215   4.486   0.619   3.623
 6324SOL    HW219216   4.459   0.471   3.604
 6325SOL     OW19217   5.198   1.193   3.489
 6325SOL    HW119218   5.187   1.209   3.583
 6325SOL    HW219219   5.290   1.213   3.472
 6326SOL     OW19220   4.088   1.739   3.441
 6326SOL    HW119221   4.028   1.735   3.367
 6326SOL    HW219222   4.063   1.665   3.497
 6327SOL     OW19223   5.387   0.879   3.117
 6327SOL    HW119224   5.384   0.793   3.074
 6327SOL    HW219225   5.377   0.942   3.045
 6328SOL     OW19226   4.944   0.321   2.313
 6328SOL    HW119227   5.014   0.255   2.308
 6328SOL    HW219228   4.965   0.372   2.392
 6329SOL     OW19229   4.311   0.735   2.534
 6329SOL    HW119230   4.350   0.821   2.518
 6329SOL    HW219231   4.246   0.725   2.464
 6330SOL     OW19232   5.473   0.368   3.513
 6330SOL    HW119233   5.464   0.381   3.419
 6330SOL    HW219234   5.402   0.309   3.536
 6331SOL     OW19235   5.474   0.933   3.372
 6331SOL    HW119236   5.461   1.027   3.384
 6331SOL    HW219237   5.454   0.918   3.280
 6332SOL     OW19238   4.588   1.365   1.907
 6332SOL    HW119239   4.550   1.395   1.990
 6332SOL    HW219240   4.605   1.445   1.857
 6333SOL     OW19241   4.390   1.786   2.805
 6333SOL    HW119242   4.375   1.874   2.772
 6333SOL    HW219243   4.484   1.772   2.794
 6334SOL     OW19244   4.594   0.972   2.716
 6334SOL    HW119245   4.644   0.899   2.752
 6334SOL    HW219246   4.553   1.014   2.792
 6335SOL     OW19247   4.800   0.988   1.951
 6335SOL    HW119248   4.779   1.040   1.873
 6335SOL    HW219249   4.874   0.933   1.924
 6336SOL     OW19250   5.570   1.553   2.702
 6336SOL    HW119251   5.490   1.541   2.651
 6336SOL    HW219252   5.563   1.488   2.772
 6337SOL     OW19253   3.948   1.289   3.709
 6337SOL    HW119254   3.893   1.216   3.679
 6337SOL    HW219255   3.920   1.304   3.799
 6338SOL     OW19256   3.816   1.233   2.528
 6338SOL    HW119257   3.828   1.184   2.610
 6338SOL    HW219258   3.880   1.194   2.468
 6339SOL     OW19259   4.406   1.411   3.488
 6339SOL    HW119260   4.333   1.366   3.530
 6339SOL    HW219261   4.408   1.497   3.528
 6340SOL     OW19262   5.576   0.190   3.100
 6340SOL    HW119263   5.505   0.129   3.080
 6340SOL    HW219264   5.609   0.217   3.015
 6341SOL     OW19265   4.152   0.429   2.383
 6341SOL    HW119266   4.181   0.357   2.328
 6341SOL    HW219267   4.102   0.386   2.454
 6342SOL     OW19268   5.419   1.485   2.953
 6342SOL    HW119269   5.341   1.466   2.901
 6342SOL    HW219270   5.424   1.416   3.018
 6343SOL     OW19271   4.060   0.566   3.153
 6343SOL    HW119272   4.112   0.506   3.207
 6343SOL    HW219273   4.078   0.539   3.063
 6344SOL     OW19274   4.555   1.582   2.536
 6344SOL    HW119275   4.535   1.647   2.468
 6344SOL    HW219276   4.480   1.522   2.533
 6345SOL     OW19277   5.131   0.214   2.993
 6345SOL    HW119278   5.209   0.176   3.034
 6345SOL    HW219279   5.086   0.259   3.064
 6346SOL     OW19280   4.696   0.060   2.998
 6346SOL    HW119281   4.644   6.996   2.949
 6346SOL    HW219282   4.747   0.007   3.059
 6347SOL     OW19283   4.498   1.334   2.187
 6347SOL    HW119284   4.472   1.242   2.193
 6347SOL    HW219285   4.581   1.339   2.233
 6348SOL     OW19286   4.343   1.556   3.145
 6348SOL    HW119287   4.342   1.639   3.193
 6348SOL    HW219288   4.432   1.548   3.112
 6349SOL     OW19289   5.046   0.012   2.059
 6349SOL    HW119290   5.086   6.942   2.005
 6349SOL    HW219291   4.972   6.969   2.102
 6350SOL     OW19292   4.990   0.453   2.546
 6350SOL    HW119293   4.947   0.538   2.546
 6350SOL    HW219294   5.009   0.435   2.638
 6351SOL     OW19295   5.347   0.260   2.781
 6351SOL    HW119296   5.259   0.237   2.811
 6351SOL    HW219297   5.332   0.318   2.706
 6352SOL     OW19298   3.766   1.064   2.173
 6352SOL    HW119299   3.859   1.055   2.152
 6352SOL    HW219300   3.738   0.975   2.194
 6353SOL     OW19301   4.612   1.662   2.200
 6353SOL    HW119302   4.538   1.647   2.143
 6353SOL    HW219303   4.585   1.735   2.256
 6354SOL     OW19304   3.943   0.627   3.856
 6354SOL    HW119305   3.857   0.617   3.896
 6354SOL    HW219306   3.929   0.604   3.764
 6355SOL     OW19307   3.948   0.306   4.718
 6355SOL    HW119308   3.984   0.264   4.795
 6355SOL    HW219309   3.870   0.254   4.696
 6356SOL     OW19310   3.733   0.398   4.353
 6356SOL    HW119311   3.648   0.413   4.396
 6356SOL    HW219312   3.715   0.331   4.288
 6357SOL     OW19313   4.293   1.300   4.910
 6357SOL    HW119314   4.207   1.305   4.868
 6357SOL    HW219315   4.310   1.388   4.942
 6358SOL     OW19316   5.298   1.515   4.433
 6358SOL    HW119317   5.254   1.491   4.515
 6358SOL    HW219318   5.228   1.518   4.368
 6359SOL     OW19319   4.857   0.700   4.418
 6359SOL    HW119320   4.905   0.782   4.406
 6359SOL    HW219321   4.809   0.713   4.500
 6360SOL     OW19322   5.504   0.601   3.947
 6360SOL    HW119323   5.478   0.597   3.855
 6360SOL    HW219324   5.462   0.524   3.987
 6361SOL     OW19325   4.465   1.136   4.772
 6361SOL    HW119326   4.401   1.175   4.831
 6361SOL    HW219327   4.507   1.211   4.729
 6362SOL     OW19328   4.599   0.760   5.549
 6362SOL    HW119329   4.588   0.830   5.613
 6362SOL    HW219330   4.622   0.805   5.468
 6363SOL     OW19331   4.410   0.997   4.367
 6363SOL    HW119332   4.476   0.989   4.435
 6363SOL    HW219333   4.342   1.052   4.405
 6364SOL     OW19334   4.438   1.149   5.544
 6364SOL    HW119335   4.486   1.225   5.576
 6364SOL    HW219336   4.358   1.184   5.504
 6365SOL     OW19337   4.056   1.415   4.791
 6365SOL    HW119338   3.981   1.375   4.746
 6365SOL    HW219339   4.099   1.467   4.723
 6366SOL     OW19340   5.182   1.503   5.087
 6366SOL    HW119341   5.237   1.581   5.096
 6366SOL    HW219342   5.114   1.514   5.152
 6367SOL     OW19343   4.166   0.399   5.204
 6367SOL    HW119344   4.249   0.351   5.213
 6367SOL    HW219345   4.099   0.331   5.212
 6368SOL     OW19346   5.337   0.456   4.451
 6368SOL    HW119347   5.286   0.487   4.376
 6368SOL    HW219348   5.333   0.529   4.513
 6369SOL     OW19349   3.942   1.715   4.195
 6369SOL    HW119350   3.963   1.791   4.249
 6369SOL    HW219351   4.018   1.705   4.138
 6370SOL     OW19352   4.862   1.343   5.419
 6370SOL    HW119353   4.903   1.336   5.505
 6370SOL    HW219354   4.809   1.263   5.411
 6371SOL     OW19355   3.956   1.444   4.257
 6371SOL    HW119356   3.937   1.537   4.261
 6371SOL    HW219357   3.901   1.405   4.324
 6372SOL     OW19358   3.993   1.092   4.614
 6372SOL    HW119359   3.990   1.004   4.650
 6372SOL    HW219360   3.935   1.143   4.670
 6373SOL     OW19361   4.322   1.794   5.148
 6373SOL    HW119362   4.242   1.775   5.198
 6373SOL    HW219363   4.349   1.881   5.177
 6374SOL     OW19364   4.298   0.986   3.866
 6374SOL    HW119365   4.349   1.027   3.797
 6374SOL    HW219366   4.338   1.017   3.948
 6375SOL     OW19367   5.297   0.128   5.163
 6375SOL    HW119368   5.323   0.217   5.139
 6375SOL    HW219369   5.306   0.125   5.258
 6376SOL     OW19370   3.844   0.658   4.286
 6376SOL    HW119371   3.816   0.569   4.307
 6376SOL    HW219372   3.836   0.706   4.368
 6377SOL     OW19373   5.568   1.752   4.054
 6377SOL    HW119374   5.638   1.728   4.114
 6377SOL    HW219375   5.584   1.844   4.034
 6378SOL     OW19376   3.797   1.568   3.853
 6378SOL    HW119377   3.766   1.480   3.874
 6378SOL    HW219378   3.763   1.623   3.924
 6379SOL     OW19379   5.414   0.919   4.370
 6379SOL    HW119380   5.496   0.874   4.349
 6379SOL    HW219381   5.393   0.970   4.292
 6380SOL     OW19382   5.375   1.102   4.154
 6380SOL    HW119383   5.462   1.101   4.113
 6380SOL    HW219384   5.383   1.166   4.225
 6381SOL     OW19385   3.846   0.751   5.304
 6381SOL    HW119386   3.935   0.785   5.308
 6381SOL    HW219387   3.790   0.829   5.305
 6382SOL     OW19388   4.342   1.392   4.459
 6382SOL    HW119389   4.298   1.308   4.467
 6382SOL    HW219390   4.326   1.419   4.368
 6383SOL     OW19391   5.008   1.235   5.143
 6383SOL    HW119392   5.038   1.166   5.084
 6383SOL    HW219393   5.067   1.230   5.218
 6384SOL     OW19394   4.551   0.026   4.246
 6384SOL    HW119395   4.584   0.114   4.225
 6384SOL    HW219396   4.456   0.037   4.247
 6385SOL     OW19397   3.912   0.960   5.005
 6385SOL    HW119398   3.998   0.923   4.990
 6385SOL    HW219399   3.854   0.913   4.945
 6386SOL     OW19400   5.255   1.001   3.925
 6386SOL    HW119401   5.186   0.944   3.958
 6386SOL    HW219402   5.299   1.034   4.003
 6387SOL     OW19403   4.906   1.815   5.351
 6387SOL    HW119404   4.912   1.877   5.278
 6387SOL    HW219405   4.925   1.730   5.312
 6388SOL     OW19406   4.044   0.269   5.507
 6388SOL    HW119407   4.101   0.332   5.552
 6388SOL    HW219408   3.964   0.267   5.560
 6389SOL     OW19409   5.192   1.419   4.669
 6389SOL    HW119410   5.126   1.435   4.736
 6389SOL    HW219411   5.178   1.328   4.643
 6390SOL     OW19412   5.374   1.759   4.300
 6390SOL    HW119413   5.358   1.723   4.213
 6390SOL    HW219414   5.359   1.685   4.360
 6391SOL     OW19415   4.316   0.714   3.994
 6391SOL    HW119416   4.319   0.799   3.952
 6391SOL    HW219417   4.251   0.723   4.064
 6392SOL     OW19418   5.007   0.376   4.675
 6392SOL    HW119419   4.915   0.350   4.681
 6392SOL    HW219420   5.051   0.322   4.742
 6393SOL     OW19421   5.302   1.674   4.035
 6393SOL    HW119422   5.394   1.698   4.027
 6393SOL    HW219423   5.274   1.657   3.945
 6394SOL     OW19424   4.516   0.622   5.176
 6394SOL    HW119425   4.491   0.593   5.263
 6394SOL    HW219426   4.484   0.554   5.117
 6395SOL     OW19427   5.120   0.480   5.404
 6395SOL    HW119428   5.124   0.520   5.491
 6395SOL    HW219429   5.172   0.400   5.412
 6396SOL     OW19430   4.673   0.885   5.311
 6396SOL    HW119431   4.729   0.818   5.272
 6396SOL    HW219432   4.624   0.921   5.238
 6397SOL     OW19433   4.718   0.414   4.954
 6397SOL    HW119434   4.631   0.433   4.989
 6397SOL    HW219435   4.702   0.368   4.872
 6398SOL     OW19436   4.779   0.699   4.148
 6398SOL    HW119437   4.797   0.694   4.241
 6398SOL    HW219438   4.695   0.655   4.137
 6399SOL     OW19439   3.812   0.825   4.502
 6399SOL    HW119440   3.892   0.817   4.553
 6399SOL    HW219441   3.767   0.901   4.539
 6400SOL     OW19442   3.848   1.873   5.308
 6400SOL    HW119443   3.853   1.850   5.401
 6400SOL    HW219444   3.762   1.840   5.280
 6401SOL     OW19445   4.613   0.355   3.924
 6401SOL    HW119446   4.660   0.411   3.862
 6401SOL    HW219447   4.582   0.281   3.872
 6402SOL     OW19448   5.426   0.569   5.554
 6402SOL    HW119449   5.392   0.644   5.505
 6402SOL    HW219450   5.451   0.506   5.487
 6403SOL     OW19451   5.107   1.142   4.263
 6403SOL    HW119452   5.187   1.132   4.211
 6403SOL    HW219453   5.054   1.204   4.213
 6404SOL     OW19454   4.224   0.186   4.635
 6404SOL    HW119455   4.264   0.219   4.716
 6404SOL    HW219456   4.247   0.253   4.569
 6405SOL     OW19457   4.722   1.444   4.191
 6405SOL    HW119458   4.693   1.521   4.141
 6405SOL    HW219459   4.698   1.464   4.282
 6406SOL     OW19460   4.078   1.815   4.595
 6406SOL    HW119461   4.122   1.730   4.601
 6406SOL    HW219462   4.146   1.879   4.615
 6407SOL     OW19463   5.525   1.050   4.598
 6407SOL    HW119464   5.473   1.031   4.520
 6407SOL    HW219465   5.461   1.058   4.668
 6408SOL     OW19466   4.950   1.541   5.238
 6408SOL    HW119467   4.938   1.469   5.300
 6408SOL    HW219468   4.881   1.527   5.172
 6409SOL     OW19469   4.034   0.960   3.979
 6409SOL    HW119470   4.118   0.978   3.936
 6409SOL    HW219471   4.009   0.874   3.946
 6410SOL     OW19472   5.206   0.752   4.446
 6410SOL    HW119473   5.202   0.713   4.533
 6410SOL    HW219474   5.283   0.808   4.447
 6411SOL     OW19475   4.196   1.269   5.462
 6411SOL    HW119476   4.169   1.273   5.370
 6411SOL    HW219477   4.113   1.266   5.510
 6412SOL     OW19478   4.848   1.781   3.948
 6412SOL    HW119479   4.773   1.742   3.993
 6412SOL    HW219480   4.873   1.715   3.883
 6413SOL     OW19481   3.911   0.269   5.246
 6413SOL    HW119482   3.860   0.349   5.235
 6413SOL    HW219483   3.943   0.272   5.336
 6414SOL     OW19484   5.352   1.383   3.816
 6414SOL    HW119485   5.311   1.468   3.801
 6414SOL    HW219486   5.284   1.319   3.794
 6415SOL     OW19487   4.189   1.725   4.049
 6415SOL    HW119488   4.234   1.782   4.112
 6415SOL    HW219489   4.259   1.694   3.991
 6416SOL     OW19490   5.148   0.140   4.149
 6416SOL    HW119491   5.136   0.092   4.067
 6416SOL    HW219492   5.243   0.142   4.162
 6417SOL     OW19493   3.980   1.790   4.951
 6417SOL    HW119494   4.029   1.719   4.992
 6417SOL    HW219495   3.971   1.763   4.860
 6418SOL     OW19496   4.663   1.701   4.620
 6418SOL    HW119497   4.743   1.652   4.643
 6418SOL    HW219498   4.624   1.649   4.549
 6419SOL     OW19499   4.121   0.692   4.196
 6419SOL    HW119500   4.137   0.598   4.209
 6419SOL    HW219501   4.027   0.702   4.215
 6420SOL     OW19502   5.246   0.228   5.447
 6420SOL    HW119503   5.268   0.230   5.540
 6420SOL    HW219504   5.156   0.195   5.443
 6421SOL     OW19505   4.378   0.112   3.822
 6421SOL    HW119506   4.411   0.041   3.876
 6421SOL    HW219507   4.312   0.071   3.766
 6422SOL     OW19508   4.490   0.280   5.492
 6422SOL    HW119509   4.574   0.235   5.483
 6422SOL    HW219510   4.443   0.229   5.558
 6423SOL     OW19511   4.599   1.523   4.919
 6423SOL    HW119512   4.581   1.485   4.834
 6423SOL    HW219513   4.668   1.469   4.957
 6424SOL     OW19514   5.064   0.592   5.159
 6424SOL    HW119515   5.095   0.562   5.245
 6424SOL    HW219516   5.101   0.680   5.151
 6425SOL     OW19517   4.543   1.387   4.673
 6425SOL    HW119518   4.629   1.376   4.630
 6425SOL    HW219519   4.481   1.395   4.600
 6426SOL     OW19520   4.655   0.513   4.620
 6426SOL    HW119521   4.627   0.506   4.528
 6426SOL    HW219522   4.684   0.425   4.643
 6427SOL     OW19523   4.284   0.067   4.218
 6427SOL    HW119524   4.205   0.055   4.271
 6427SOL    HW219525   4.261   0.135   4.156
 6428SOL     OW19526   5.152   1.201   3.762
 6428SOL    HW119527   5.183   1.126   3.814
 6428SOL    HW219528   5.067   1.223   3.800
 6429SOL     OW19529   4.044   0.061   3.911
 6429SOL    HW119530   4.090   0.140   3.939
 6429SOL    HW219531   4.071   6.994   3.974
 6430SOL     OW19532   4.670   0.268   4.179
 6430SOL    HW119533   4.646   0.299   4.092
 6430SOL    HW219534   4.766   0.277   4.183
 6431SOL     OW19535   4.806   0.687   5.179
 6431SOL    HW119536   4.742   0.617   5.192
 6431SOL    HW219537   4.891   0.643   5.177
 6432SOL     OW19538   4.942   1.573   4.519
 6432SOL    HW119539   4.956   1.638   4.450
 6432SOL    HW219540   5.012   1.589   4.582
 6433SOL     OW19541   4.198   1.156   4.448
 6433SOL    HW119542   4.133   1.135   4.515
 6433SOL    HW219543   4.152   1.143   4.365
 6434SOL     OW19544   4.986   1.791   4.337
 6434SOL    HW119545   5.035   1.854   4.284
 6434SOL    HW219546   4.917   1.843   4.378
 6435SOL     OW19547   4.745   0.532   3.757
 6435SOL    HW119548   4.703   0.616   3.738
 6435SOL    HW219549   4.811   0.553   3.823
 6436SOL     OW19550   3.815   0.546   5.126
 6436SOL    HW119551   3.905   0.552   5.093
 6436SOL    HW219552   3.806   0.619   5.187
 6437SOL     OW19553   4.291   0.244   4.902
 6437SOL    HW119554   4.333   0.171   4.947
 6437SOL    HW219555   4.199   0.239   4.928
 6438SOL     OW19556   4.589   0.466   4.361
 6438SOL    HW119557   4.543   0.521   4.297
 6438SOL    HW219558   4.614   0.387   4.311
 6439SOL     OW19559   4.689   0.023   4.494
 6439SOL    HW119560   4.634   0.026   4.416
 6439SOL    HW219561   4.746   6.948   4.481
 6440SOL     OW19562   5.164   1.159   4.581
 6440SOL    HW119563   5.093   1.095   4.583
 6440SOL    HW219564   5.186   1.166   4.488
 6441SOL     OW19565   5.189   0.612   4.689
 6441SOL    HW119566   5.133   0.535   4.694
 6441SOL    HW219567   5.248   0.604   4.764
 6442SOL     OW19568   5.562   0.810   4.110
 6442SOL    HW119569   5.622   0.762   4.168
 6442SOL    HW219570   5.540   0.747   4.042
 6443SOL     OW19571   4.214   1.422   3.875
 6443SOL    HW119572   4.137   1.394   3.924
 6443SOL    HW219573   4.215   1.365   3.798
 6444SOL     OW19574   5.404   1.265   4.364
 6444SOL    HW119575   5.498   1.263   4.380
 6444SOL    HW219576   5.377   1.354   4.387
 6445SOL     OW19577   5.119   0.575   3.797
 6445SOL    HW119578   5.056   0.552   3.866
 6445SOL    HW219579   5.205   0.560   3.837
 6446SOL     OW19580   4.233   0.255   4.019
 6446SOL    HW119581   4.299   0.218   3.960
 6446SOL    HW219582   4.214   0.341   3.984
 6447SOL     OW19583   5.470   1.243   5.281
 6447SOL    HW119584   5.558   1.205   5.273
 6447SOL    HW219585   5.486   1.332   5.313
 6448SOL     OW19586   4.777   1.353   5.055
 6448SOL    HW119587   4.701   1.322   5.104
 6448SOL    HW219588   4.852   1.311   5.097
 6449SOL     OW19589   5.333   1.628   5.383
 6449SOL    HW119590   5.325   1.663   5.294
 6449SOL    HW219591   5.414   1.578   5.382
 6450SOL     OW19592   4.861   1.213   4.825
 6450SOL    HW119593   4.801   1.250   4.890
 6450SOL    HW219594   4.831   1.248   4.741
 6451SOL     OW19595   5.345   1.095   4.800
 6451SOL    HW119596   5.339   1.158   4.871
 6451SOL    HW219597   5.270   1.115   4.743
 6452SOL     OW19598   4.612   0.150   5.115
 6452SOL    HW119599   4.632   0.121   5.026
 6452SOL    HW219600   4.697   0.175   5.152
 6453SOL     OW19601   4.708   1.116   5.447
 6453SOL    HW119602   4.617   1.132   5.472
 6453SOL    HW219603   4.704   1.037   5.393
 6454SOL     OW19604   4.435   1.064   4.095
 6454SOL    HW119605   4.420   1.043   4.187
 6454SOL    HW219606   4.510   1.010   4.070
 6455SOL     OW19607   4.147   0.822   4.976
 6455SOL    HW119608   4.215   0.831   5.043
 6455SOL    HW219609   4.112   0.734   4.988
 6456SOL     OW19610   4.982   0.374   5.016
 6456SOL    HW119611   5.016   0.453   5.060
 6456SOL    HW219612   4.892   0.397   4.993
 6457SOL     OW19613   3.800   1.574   5.083
 6457SOL    HW119614   3.772   1.646   5.026
 6457SOL    HW219615   3.895   1.572   5.074
 6458SOL     OW19616   4.056   1.121   4.214
 6458SOL    HW119617   4.059   1.194   4.152
 6458SOL    HW219618   4.055   1.043   4.158
 6459SOL     OW19619   4.275   0.533   4.581
 6459SOL    HW119620   4.289   0.592   4.507
 6459SOL    HW219621   4.343   0.557   4.644
 6460SOL     OW19622   4.971   1.351   4.115
 6460SOL    HW119623   5.027   1.422   4.148
 6460SOL    HW219624   4.884   1.372   4.149
 6461SOL     OW19625   5.016   1.462   4.873
 6461SOL    HW119626   5.071   1.468   4.951
 6461SOL    HW219627   4.961   1.385   4.888
 6462SOL     OW19628   5.294   0.621   4.211
 6462SOL    HW119629   5.247   0.674   4.275
 6462SOL    HW219630   5.345   0.685   4.161
 6463SOL     OW19631   4.069   1.531   5.032
 6463SOL    HW119632   4.059   1.485   4.949
 6463SOL    HW219633   4.164   1.542   5.042
 6464SOL     OW19634   4.147   0.741   5.331
 6464SOL    HW119635   4.206   0.788   5.272
 6464SOL    HW219636   4.192   0.658   5.348
 6465SOL     OW19637   5.335   0.782   5.413
 6465SOL    HW119638   5.249   0.823   5.407
 6465SOL    HW219639   5.387   0.823   5.344
 6466SOL     OW19640   4.723   0.133   5.453
 6466SOL    HW119641   4.766   0.163   5.373
 6466SOL    HW219642   4.722   0.038   5.446
 6467SOL     OW19643   4.186   0.032   5.484
 6467SOL    HW119644   4.113   6.971   5.494
 6467SOL    HW219645   4.145   0.118   5.486
 6468SOL     OW19646   4.309   0.877   4.755
 6468SOL    HW119647   4.345   0.966   4.761
 6468SOL    HW219648   4.253   0.869   4.832
 6469SOL     OW19649   5.067   0.859   4.741
 6469SOL    HW119650   4.979   0.840   4.708
 6469SOL    HW219651   5.114   0.776   4.732
 6470SOL     OW19652   4.923   0.528   3.985
 6470SOL    HW119653   4.931   0.450   4.039
 6470SOL    HW219654   4.880   0.592   4.042
 6471SOL     OW19655   4.028   0.209   4.972
 6471SOL    HW119656   3.966   0.214   5.045
 6471SOL    HW219657   4.020   0.119   4.940
 6472SOL     OW19658   3.772   1.312   4.997
 6472SOL    HW119659   3.802   1.256   5.068
 6472SOL    HW219660   3.776   1.401   5.033
 6473SOL     OW19661   4.447   0.633   4.774
 6473SOL    HW119662   4.523   0.622   4.717
 6473SOL    HW219663   4.416   0.722   4.755
 6474SOL     OW19664   5.466   0.960   5.585
 6474SOL    HW119665   5.422   0.892   5.533
 6474SOL    HW219666   5.404   0.979   5.656
 6475SOL     OW19667   4.045   0.059   4.347
 6475SOL    HW119668   4.024   0.147   4.378
 6475SOL    HW219669   3.987   0.002   4.398
 6476SOL     OW19670   5.346   0.397   4.060
 6476SOL    HW119671   5.375   0.324   4.116
 6476SOL    HW219672   5.317   0.464   4.122
 6477SOL     OW19673   4.755   0.760   4.682
 6477SOL    HW119674   4.744   0.776   4.776
 6477SOL    HW219675   4.728   0.669   4.670
 6478SOL     OW19676   4.704   1.566   5.447
 6478SOL    HW119677   4.689   1.610   5.363
 6478SOL    HW219678   4.748   1.484   5.424
 6479SOL     OW19679   5.573   1.500   5.327
 6479SOL    HW119680   5.596   1.528   5.239
 6479SOL    HW219681   5.653   1.513   5.379
 6480SOL     OW19682   4.076   0.916   5.533
 6480SOL    HW119683   4.155   0.937   5.583
 6480SOL    HW219684   4.104   0.852   5.468
 6481SOL     OW19685   5.265   0.229   3.856
 6481SOL    HW119686   5.170   0.229   3.870
 6481SOL    HW219687   5.299   0.288   3.923
 6482SOL     OW19688   5.008   0.824   3.750
 6482SOL    HW119689   5.050   0.738   3.755
 6482SOL    HW219690   5.041   0.862   3.669
 6483SOL     OW19691   4.794   1.340   4.582
 6483SOL    HW119692   4.800   1.268   4.519
 6483SOL    HW219693   4.851   1.408   4.546
 6484SOL     OW19694   4.033   0.814   4.668
 6484SOL    HW119695   4.126   0.834   4.663
 6484SOL    HW219696   4.030   0.724   4.700
 6485SOL     OW19697   4.058   0.544   4.737
 6485SOL    HW119698   4.019   0.458   4.724
 6485SOL    HW219699   4.135   0.544   4.680
 6486SOL     OW19700   4.850   0.421   5.389
 6486SOL    HW119701   4.806   0.456   5.466
 6486SOL    HW219702   4.942   0.444   5.401
 6487SOL     OW19703   4.855   0.219   5.216
 6487SOL    HW119704   4.855   0.296   5.273
 6487SOL    HW219705   4.913   0.242   5.143
 6488SOL     OW19706   3.731   1.308   3.916
 6488SOL    HW119707   3.644   1.324   3.879
 6488SOL    HW219708   3.725   1.219   3.952
 6489SOL     OW19709   3.814   1.780   4.667
 6489SOL    HW119710   3.784   1.702   4.619
 6489SOL    HW219711   3.903   1.795   4.634
 6490SOL     OW19712   4.214   1.574   4.627
 6490SOL    HW119713   4.283   1.636   4.651
 6490SOL    HW219714   4.258   1.511   4.570
 6491SOL     OW19715   4.695   0.787   4.946
 6491SOL    HW119716   4.755   0.767   5.018
 6491SOL    HW219717   4.612   0.747   4.973
 6492SOL     OW19718   3.760   0.549   4.845
 6492SOL    HW119719   3.836   0.535   4.788
 6492SOL    HW219720   3.796   0.546   4.934
 6493SOL     OW19721   3.908   0.532   5.455
 6493SOL    HW119722   3.988   0.514   5.407
 6493SOL    HW219723   3.869   0.607   5.409
 6494SOL     OW19724   5.106   0.932   5.381
 6494SOL    HW119725   5.127   1.025   5.377
 6494SOL    HW219726   5.102   0.904   5.289
 6495SOL     OW19727   4.542   0.575   4.091
 6495SOL    HW119728   4.549   0.500   4.033
 6495SOL    HW219729   4.466   0.624   4.059
 6496SOL     OW19730   5.363   0.603   4.901
 6496SOL    HW119731   5.351   0.543   4.975
 6496SOL    HW219732   5.452   0.584   4.869
 6497SOL     OW19733   3.960   1.548   5.446
 6497SOL    HW119734   3.939   1.612   5.514
 6497SOL    HW219735   3.969   1.465   5.493
 6498SOL     OW19736   4.442   0.458   4.978
 6498SOL    HW119737   4.385   0.385   4.953
 6498SOL    HW219738   4.434   0.520   4.906
 6499SOL     OW19739   4.644   1.678   5.196
 6499SOL    HW119740   4.620   1.638   5.113
 6499SOL    HW219741   4.640   1.772   5.180
 6500SOL     OW19742   4.181   0.491   3.895
 6500SOL    HW119743   4.241   0.560   3.923
 6500SOL    HW219744   4.096   0.535   3.890
 6501SOL     OW19745   3.863   1.144   5.199
 6501SOL    HW119746   3.866   1.098   5.283
 6501SOL    HW219747   3.881   1.076   5.134
 6502SOL     OW19748   5.043   1.042   4.941
 6502SOL    HW119749   5.063   0.979   4.872
 6502SOL    HW219750   4.978   1.100   4.902
 6503SOL     OW19751   5.042   0.856   4.026
 6503SOL    HW119752   4.968   0.825   4.079
 6503SOL    HW219753   5.013   0.843   3.935
 6504SOL     OW19754   5.504   1.735   4.882
 6504SOL    HW119755   5.564   1.761   4.812
 6504SOL    HW219756   5.476   1.646   4.858
 6505SOL     OW19757   4.963   1.732   4.825
 6505SOL    HW119758   5.046   1.757   4.786
 6505SOL    HW219759   4.974   1.639   4.848
 6506SOL     OW19760   3.814   1.264   4.734
 6506SOL    HW119761   3.795   1.280   4.826
 6506SOL    HW219762   3.741   1.209   4.704
 6507SOL     OW19763   4.404   1.673   5.465
 6507SOL    HW119764   4.344   1.747   5.456
 6507SOL    HW219765   4.475   1.691   5.404
 6508SOL     OW19766   5.431   0.174   4.194
 6508SOL    HW119767   5.511   0.155   4.144
 6508SOL    HW219768   5.434   0.113   4.267
 6509SOL     OW19769   5.117   1.568   4.216
 6509SOL    HW119770   5.175   1.603   4.148
 6509SOL    HW219771   5.067   1.644   4.246
 6510SOL     OW19772   3.866   1.795   5.566
 6510SOL    HW119773   3.816   1.728   5.613
 6510SOL    HW219774   3.913   1.843   5.635
 6511SOL     OW19775   5.002   0.929   4.394
 6511SOL    HW119776   5.076   0.870   4.407
 6511SOL    HW219777   5.037   1.001   4.340
 6512SOL     OW19778   4.526   1.278   5.146
 6512SOL    HW119779   4.499   1.320   5.228
 6512SOL    HW219780   4.454   1.296   5.085
 6513SOL     OW19781   4.393   1.627   3.880
 6513SOL    HW119782   4.407   1.641   3.786
 6513SOL    HW219783   4.337   1.549   3.884
 6514SOL     OW19784   5.342   1.729   5.116
 6514SOL    HW119785   5.396   1.733   5.037
 6514SOL    HW219786   5.328   1.820   5.140
 6515SOL     OW19787   5.595   0.159   4.676
 6515SOL    HW119788   5.581   0.065   4.683
 6515SOL    HW219789   5.507   0.195   4.663
 6516SOL     OW19790   3.984   0.312   4.437
 6516SOL    HW119791   3.898   0.347   4.415
 6516SOL    HW219792   3.987   0.314   4.533
 6517SOL     OW19793   4.932   1.599   3.758
 6517SOL    HW119794   4.921   1.508   3.785
 6517SOL    HW219795   4.865   1.612   3.691
 6518SOL     OW19796   4.547   1.008   5.101
 6518SOL    HW119797   4.592   1.000   5.016
 6518SOL    HW219798   4.543   1.102   5.117
 6519SOL     OW19799   4.641   0.911   4.014
 6519SOL    HW119800   4.701   0.944   3.948
 6519SOL    HW219801   4.690   0.843   4.060
 6520SOL     OW19802   5.212   1.632   3.770
 6520SOL    HW119803   5.118   1.619   3.754
 6520SOL    HW219804   5.250   1.636   3.683
 6521SOL     OW19805   4.091   1.306   5.216
 6521SOL    HW119806   4.078   1.382   5.160
 6521SOL    HW219807   4.013   1.251   5.201
 6522SOL     OW19808   5.331   1.285   5.004
 6522SOL    HW119809   5.389   1.267   5.078
 6522SOL    HW219810   5.270   1.352   5.036
 6523SOL     OW19811   4.788   1.111   4.436
 6523SOL    HW119812   4.715   1.062   4.473
 6523SOL    HW219813   4.852   1.045   4.411
 6524SOL     OW19814   4.752   0.248   4.669
 6524SOL    HW119815   4.729   0.196   4.592
 6524SOL    HW219816   4.738   0.188   4.743
 6525SOL     OW19817   4.330   1.487   4.203
 6525SOL    HW119818   4.380   1.437   4.138
 6525SOL    HW219819   4.254   1.520   4.155
 6526SOL     OW19820   5.454   0.389   5.101
 6526SOL    HW119821   5.524   0.454   5.106
 6526SOL    HW219822   5.492   0.318   5.049
 6527SOL     OW19823   3.987   1.338   4.014
 6527SOL    HW119824   3.895   1.330   3.991
 6527SOL    HW219825   3.986   1.381   4.100
 6528SOL     OW19826   3.839   1.036   5.450
 6528SOL    HW119827   3.763   1.008   5.501
 6528SOL    HW219828   3.913   0.991   5.492
 6529SOL     OW19829   4.388   0.240   5.236
 6529SOL    HW119830   4.466   0.218   5.185
 6529SOL    HW219831   4.423   0.272   5.320
 6530SOL     OW19832   3.799   0.332   3.761
 6530SOL    HW119833   3.707   0.316   3.740
 6530SOL    HW219834   3.823   0.408   3.708
 6531SOL     OW19835   5.149   0.859   5.121
 6531SOL    HW119836   5.098   0.919   5.066
 6531SOL    HW219837   5.237   0.861   5.084
 6532SOL     OW19838   3.792   0.176   4.033
 6532SOL    HW119839   3.802   0.240   3.963
 6532SOL    HW219840   3.838   0.098   4.001
 6533SOL     OW19841   4.904   1.332   3.844
 6533SOL    HW119842   4.816   1.294   3.847
 6533SOL    HW219843   4.931   1.336   3.936
 6534SOL     OW19844   4.345   0.832   5.160
 6534SOL    HW119845   4.402   0.908   5.145
 6534SOL    HW219846   4.405   0.758   5.168
 6535SOL     OW19847   5.208   1.787   4.708
 6535SOL    HW119848   5.231   1.856   4.645
 6535SOL    HW219849   5.292   1.758   4.743
 6536SOL     OW19850   4.440   0.557   5.427
 6536SOL    HW119851   4.485   0.620   5.484
 6536SOL    HW219852   4.459   0.472   5.466
 6537SOL     OW19853   5.197   1.193   5.351
 6537SOL    HW119854   5.186   1.209   5.445
 6537SOL    HW219855   5.289   1.213   5.335
 6538SOL     OW19856   4.092   1.741   5.290
 6538SOL    HW119857   4.010   1.788   5.275
 6538SOL    HW219858   4.066   1.658   5.331
 6539SOL     OW19859   5.387   0.879   4.979
 6539SOL    HW119860   5.384   0.794   4.936
 6539SOL    HW219861   5.377   0.942   4.908
 6540SOL     OW19862   4.944   0.321   4.175
 6540SOL    HW119863   5.013   0.255   4.170
 6540SOL    HW219864   4.965   0.372   4.253
 6541SOL     OW19865   4.312   0.734   4.395
 6541SOL    HW119866   4.351   0.820   4.381
 6541SOL    HW219867   4.247   0.725   4.326
 6542SOL     OW19868   5.473   0.367   5.375
 6542SOL    HW119869   5.464   0.381   5.280
 6542SOL    HW219870   5.402   0.308   5.398
 6543SOL     OW19871   5.474   0.933   5.234
 6543SOL    HW119872   5.461   1.027   5.247
 6543SOL    HW219873   5.454   0.918   5.142
 6544SOL     OW19874   4.579   1.365   3.766
 6544SOL    HW119875   4.549   1.390   3.854
 6544SOL    HW219876   4.601   1.448   3.724
 6545SOL     OW19877   4.387   1.782   4.658
 6545SOL    HW119878   4.370   1.874   4.642
 6545SOL    HW219879   4.483   1.775   4.655
 6546SOL     OW19880   4.594   0.972   4.577
 6546SOL    HW119881   4.644   0.900   4.615
 6546SOL    HW219882   4.553   1.015   4.653
 6547SOL     OW19883   4.801   0.990   3.812
 6547SOL    HW119884   4.780   1.040   3.733
 6547SOL    HW219885   4.874   0.934   3.786
 6548SOL     OW19886   5.569   1.552   4.564
 6548SOL    HW119887   5.489   1.541   4.513
 6548SOL    HW219888   5.560   1.491   4.637
 6549SOL     OW19889   3.951   1.298   5.576
 6549SOL    HW119890   3.891   1.231   5.542
 6549SOL    HW219891   3.923   1.311   5.667
 6550SOL     OW19892   3.817   1.227   4.389
 6550SOL    HW119893   3.828   1.185   4.474
 6550SOL    HW219894   3.884   1.187   4.333
 6551SOL     OW19895   4.409   1.410   5.355
 6551SOL    HW119896   4.331   1.367   5.390
 6551SOL    HW219897   4.407   1.498   5.393
 6552SOL     OW19898   5.575   0.190   4.963
 6552SOL    HW119899   5.505   0.128   4.942
 6552SOL    HW219900   5.609   0.218   4.877
 6553SOL     OW19901   4.151   0.429   4.244
 6553SOL    HW119902   4.181   0.356   4.190
 6553SOL    HW219903   4.102   0.388   4.315
 6554SOL     OW19904   5.421   1.484   4.813
 6554SOL    HW119905   5.342   1.465   4.764
 6554SOL    HW219906   5.425   1.416   4.880
 6555SOL     OW19907   4.059   0.565   5.015
 6555SOL    HW119908   4.112   0.506   5.069
 6555SOL    HW219909   4.078   0.538   4.925
 6556SOL     OW19910   4.557   1.578   4.399
 6556SOL    HW119911   4.531   1.642   4.333
 6556SOL    HW219912   4.483   1.518   4.404
 6557SOL     OW19913   5.132   0.214   4.855
 6557SOL    HW119914   5.209   0.176   4.897
 6557SOL    HW219915   5.086   0.259   4.925
 6558SOL     OW19916   4.696   0.060   4.859
 6558SOL    HW119917   4.643   6.996   4.812
 6558SOL    HW219918   4.748   0.007   4.921
 6559SOL     OW19919   4.501   1.334   4.044
 6559SOL    HW119920   4.475   1.243   4.054
 6559SOL    HW219921   4.581   1.342   4.096
 6560SOL     OW19922   4.343   1.557   5.011
 6560SOL    HW119923   4.343   1.640   5.059
 6560SOL    HW219924   4.432   1.551   4.975
 6561SOL     OW19925   5.045   0.013   3.918
 6561SOL    HW119926   5.084   6.942   3.866
 6561SOL    HW219927   4.972   6.972   3.964
 6562SOL     OW19928   4.990   0.453   4.408
 6562SOL    HW119929   4.947   0.538   4.408
 6562SOL    HW219930   5.009   0.435   4.500
 6563SOL     OW19931   5.346   0.259   4.642
 6563SOL    HW119932   5.259   0.238   4.674
 6563SOL    HW219933   5.331   0.318   4.568
 6564SOL     OW19934   3.767   1.059   4.033
 6564SOL    HW119935   3.860   1.050   4.014
 6564SOL    HW219936   3.738   0.971   4.056
 6565SOL     OW19937   4.615   1.663   4.060
 6565SOL    HW119938   4.539   1.647   4.005
 6565SOL    HW219939   4.588   1.734   4.118
 6566SOL     OW19940   3.942   0.623   5.718
 6566SOL    HW119941   3.856   0.617   5.758
 6566SOL    HW219942   3.928   0.603   5.626
 6567SOL     OW19943   3.941   0.312   6.585
 6567SOL    HW119944   3.979   0.267   6.660
 6567SOL    HW219945   3.866   0.258   6.560
 6568SOL     OW19946   3.733   0.398   6.216
 6568SOL    HW119947   3.649   0.415   6.257
 6568SOL    HW219948   3.714   0.331   6.150
 6569SOL     OW19949   4.287   1.284   6.755
 6569SOL    HW119950   4.203   1.305   6.716
 6569SOL    HW219951   4.310   1.360   6.808
 6570SOL     OW19952   5.297   1.515   6.295
 6570SOL    HW119953   5.251   1.493   6.376
 6570SOL    HW219954   5.228   1.519   6.229
 6571SOL     OW19955   4.856   0.699   6.282
 6571SOL    HW119956   4.904   0.781   6.270
 6571SOL    HW219957   4.806   0.713   6.363
 6572SOL     OW19958   5.506   0.599   5.808
 6572SOL    HW119959   5.480   0.596   5.716
 6572SOL    HW219960   5.464   0.524   5.849
 6573SOL     OW19961   4.487   1.140   6.637
 6573SOL    HW119962   4.415   1.169   6.693
 6573SOL    HW219963   4.513   1.219   6.589
 6574SOL     OW19964   4.410   0.996   6.229
 6574SOL    HW119965   4.476   0.989   6.298
 6574SOL    HW219966   4.341   1.051   6.267
 6575SOL     OW19967   4.058   1.409   6.653
 6575SOL    HW119968   3.977   1.378   6.611
 6575SOL    HW219969   4.097   1.469   6.589
 6576SOL     OW19970   5.339   0.460   6.312
 6576SOL    HW119971   5.287   0.488   6.236
 6576SOL    HW219972   5.327   0.530   6.376
 6577SOL     OW19973   3.943   1.717   6.053
 6577SOL    HW119974   3.964   1.791   6.110
 6577SOL    HW219975   4.019   1.709   5.995
 6578SOL     OW19976   3.956   1.446   6.123
 6578SOL    HW119977   3.938   1.540   6.124
 6578SOL    HW219978   3.900   1.409   6.191
 6579SOL     OW19979   3.991   1.093   6.477
 6579SOL    HW119980   3.988   1.006   6.516
 6579SOL    HW219981   3.937   1.147   6.534
 6580SOL     OW19982   4.342   1.804   6.981
 6580SOL    HW119983   4.257   1.782   0.018
 6580SOL    HW219984   4.361   1.892   0.014
 6581SOL     OW19985   4.300   0.986   5.727
 6581SOL    HW119986   4.350   1.029   5.658
 6581SOL    HW219987   4.339   1.017   5.809
 6582SOL     OW19988   3.844   0.659   6.148
 6582SOL    HW119989   3.816   0.570   6.170
 6582SOL    HW219990   3.836   0.707   6.230
 6583SOL     OW19991   5.568   1.752   5.915
 6583SOL    HW119992   5.637   1.727   5.976
 6583SOL    HW219993   5.584   1.844   5.896
 6584SOL     OW19994   3.764   1.589   5.705
 6584SOL    HW119995   3.746   1.497   5.725
 6584SOL    HW219996   3.738   1.637   5.783
 6585SOL     OW19997   5.413   0.918   6.230
 6585SOL    HW119998   5.496   0.875   6.209
 6585SOL    HW219999   5.392   0.970   6.153
 6586SOL     OW20000   5.375   1.103   6.016
 6586SOL    HW120001   5.462   1.103   5.975
 6586SOL    HW220002   5.383   1.167   6.087
 6587SOL     OW20003   4.341   1.391   6.321
 6587SOL    HW120004   4.295   1.308   6.330
 6587SOL    HW220005   4.324   1.419   6.231
 6588SOL     OW20006   4.550   0.026   6.102
 6588SOL    HW120007   4.584   0.113   6.084
 6588SOL    HW220008   4.455   0.037   6.107
 6589SOL     OW20009   3.918   0.972   6.846
 6589SOL    HW120010   3.996   0.920   6.827
 6589SOL    HW220011   3.845   0.919   6.813
 6590SOL     OW20012   5.255   1.001   5.787
 6590SOL    HW120013   5.186   0.944   5.820
 6590SOL    HW220014   5.299   1.034   5.865
 6591SOL     OW20015   5.177   1.424   6.528
 6591SOL    HW120016   5.121   1.434   6.605
 6591SOL    HW220017   5.170   1.331   6.505
 6592SOL     OW20018   5.374   1.760   6.161
 6592SOL    HW120019   5.356   1.722   6.075
 6592SOL    HW220020   5.360   1.687   6.222
 6593SOL     OW20021   4.316   0.714   5.856
 6593SOL    HW120022   4.319   0.800   5.813
 6593SOL    HW220023   4.251   0.725   5.926
 6594SOL     OW20024   5.006   0.372   6.539
 6594SOL    HW120025   4.914   0.347   6.544
 6594SOL    HW220026   5.048   0.319   6.607
 6595SOL     OW20027   5.302   1.673   5.897
 6595SOL    HW120028   5.394   1.697   5.889
 6595SOL    HW220029   5.273   1.657   5.807
 6596SOL     OW20030   4.522   0.624   0.048
 6596SOL    HW120031   4.458   0.655   0.112
 6596SOL    HW220032   4.471   0.568   6.988
 6597SOL     OW20033   4.723   0.389   6.798
 6597SOL    HW120034   4.671   0.450   6.849
 6597SOL    HW220035   4.664   0.360   6.728
 6598SOL     OW20036   4.780   0.698   6.010
 6598SOL    HW120037   4.798   0.693   6.104
 6598SOL    HW220038   4.695   0.655   5.999
 6599SOL     OW20039   3.813   0.823   6.365
 6599SOL    HW120040   3.893   0.817   6.417
 6599SOL    HW220041   3.767   0.899   6.401
 6600SOL     OW20042   3.881   1.849   0.138
 6600SOL    HW120043   3.828   1.782   0.181
 6600SOL    HW220044   3.826   1.879   0.064
 6601SOL     OW20045   4.613   0.356   5.786
 6601SOL    HW120046   4.660   0.412   5.724
 6601SOL    HW220047   4.582   0.282   5.733
 6602SOL     OW20048   5.106   1.141   6.124
 6602SOL    HW120049   5.186   1.132   6.073
 6602SOL    HW220050   5.053   1.204   6.075
 6603SOL     OW20051   4.227   0.197   6.498
 6603SOL    HW120052   4.276   0.249   6.562
 6603SOL    HW220053   4.239   0.244   6.415
 6604SOL     OW20054   4.722   1.445   6.053
 6604SOL    HW120055   4.693   1.520   6.001
 6604SOL    HW220056   4.696   1.465   6.142
 6605SOL     OW20057   4.077   1.815   6.453
 6605SOL    HW120058   4.118   1.730   6.465
 6605SOL    HW220059   4.145   1.878   6.478
 6606SOL     OW20060   5.527   1.049   6.456
 6606SOL    HW120061   5.476   1.031   6.377
 6606SOL    HW220062   5.463   1.050   6.527
 6607SOL     OW20063   4.036   0.961   5.842
 6607SOL    HW120064   4.119   0.980   5.798
 6607SOL    HW220065   4.008   0.877   5.805
 6608SOL     OW20066   5.205   0.751   6.305
 6608SOL    HW120067   5.201   0.712   6.392
 6608SOL    HW220068   5.283   0.807   6.307
 6609SOL     OW20069   4.850   1.779   5.813
 6609SOL    HW120070   4.773   1.741   5.856
 6609SOL    HW220071   4.874   1.714   5.746
 6610SOL     OW20072   5.352   1.382   5.677
 6610SOL    HW120073   5.311   1.467   5.663
 6610SOL    HW220074   5.284   1.319   5.655
 6611SOL     OW20075   4.186   1.736   5.904
 6611SOL    HW120076   4.231   1.792   5.968
 6611SOL    HW220077   4.256   1.701   5.849
 6612SOL     OW20078   5.149   0.141   6.011
 6612SOL    HW120079   5.136   0.092   5.930
 6612SOL    HW220080   5.244   0.142   6.024
 6613SOL     OW20081   3.998   1.797   6.818
 6613SOL    HW120082   4.044   1.739   6.880
 6613SOL    HW220083   3.942   1.738   6.768
 6614SOL     OW20084   4.666   1.698   6.479
 6614SOL    HW120085   4.747   1.650   6.497
 6614SOL    HW220086   4.624   1.647   6.409
 6615SOL     OW20087   4.121   0.691   6.058
 6615SOL    HW120088   4.137   0.598   6.071
 6615SOL    HW220089   4.028   0.702   6.076
 6616SOL     OW20090   4.377   0.112   5.685
 6616SOL    HW120091   4.411   0.040   5.738
 6616SOL    HW220092   4.312   0.071   5.628
 6617SOL     OW20093   4.594   1.519   6.763
 6617SOL    HW120094   4.577   1.486   6.675
 6617SOL    HW220095   4.630   1.445   6.811
 6618SOL     OW20096   4.543   1.386   6.524
 6618SOL    HW120097   4.627   1.377   6.480
 6618SOL    HW220098   4.479   1.394   6.453
 6619SOL     OW20099   4.657   0.510   6.484
 6619SOL    HW120100   4.628   0.505   6.392
 6619SOL    HW220101   4.691   0.423   6.503
 6620SOL     OW20102   4.283   0.067   6.082
 6620SOL    HW120103   4.204   0.055   6.135
 6620SOL    HW220104   4.260   0.136   6.020
 6621SOL     OW20105   5.151   1.201   5.624
 6621SOL    HW120106   5.181   1.127   5.676
 6621SOL    HW220107   5.066   1.224   5.661
 6622SOL     OW20108   4.044   0.059   5.773
 6622SOL    HW120109   4.088   0.141   5.798
 6622SOL    HW220110   4.075   6.995   5.836
 6623SOL     OW20111   4.670   0.268   6.042
 6623SOL    HW120112   4.646   0.300   5.955
 6623SOL    HW220113   4.765   0.277   6.045
 6624SOL     OW20114   4.940   1.575   6.382
 6624SOL    HW120115   4.954   1.641   6.314
 6624SOL    HW220116   5.017   1.580   6.438
 6625SOL     OW20117   4.198   1.154   6.311
 6625SOL    HW120118   4.132   1.135   6.378
 6625SOL    HW220119   4.152   1.142   6.228
 6626SOL     OW20120   4.986   1.791   6.200
 6626SOL    HW120121   5.034   1.854   6.146
 6626SOL    HW220122   4.915   1.843   6.239
 6627SOL     OW20123   4.744   0.533   5.619
 6627SOL    HW120124   4.702   0.617   5.599
 6627SOL    HW220125   4.810   0.555   5.685
 6628SOL     OW20126   4.302   0.219   6.783
 6628SOL    HW120127   4.313   0.131   6.747
 6628SOL    HW220128   4.208   0.227   6.800
 6629SOL     OW20129   4.588   0.466   6.224
 6629SOL    HW120130   4.543   0.521   6.159
 6629SOL    HW220131   4.613   0.388   6.175
 6630SOL     OW20132   4.687   0.024   6.348
 6630SOL    HW120133   4.634   0.023   6.269
 6630SOL    HW220134   4.744   6.947   6.340
 6631SOL     OW20135   5.159   1.159   6.442
 6631SOL    HW120136   5.094   1.089   6.441
 6631SOL    HW220137   5.183   1.169   6.349
 6632SOL     OW20138   5.189   0.610   6.546
 6632SOL    HW120139   5.134   0.533   6.557
 6632SOL    HW220140   5.250   0.606   6.619
 6633SOL     OW20141   5.563   0.809   5.972
 6633SOL    HW120142   5.622   0.762   6.030
 6633SOL    HW220143   5.541   0.746   5.903
 6634SOL     OW20144   4.213   1.422   5.738
 6634SOL    HW120145   4.137   1.394   5.788
 6634SOL    HW220146   4.210   1.370   5.658
 6635SOL     OW20147   5.403   1.265   6.227
 6635SOL    HW120148   5.498   1.263   6.243
 6635SOL    HW220149   5.377   1.354   6.250
 6636SOL     OW20150   5.119   0.574   5.659
 6636SOL    HW120151   5.056   0.552   5.728
 6636SOL    HW220152   5.205   0.561   5.700
 6637SOL     OW20153   4.233   0.255   5.882
 6637SOL    HW120154   4.299   0.218   5.823
 6637SOL    HW220155   4.215   0.341   5.847
 6638SOL     OW20156   5.484   1.172   0.163
 6638SOL    HW120157   5.577   1.169   0.141
 6638SOL    HW220158   5.457   1.261   0.139
 6639SOL     OW20159   4.839   1.238   6.693
 6639SOL    HW120160   4.759   1.191   6.714
 6639SOL    HW220161   4.828   1.266   6.602
 6640SOL     OW20162   5.339   1.081   6.648
 6640SOL    HW120163   5.337   1.152   6.713
 6640SOL    HW220164   5.267   1.102   6.588
 6641SOL     OW20165   4.435   1.063   5.957
 6641SOL    HW120166   4.420   1.043   6.049
 6641SOL    HW220167   4.510   1.009   5.932
 6642SOL     OW20168   4.153   0.814   6.849
 6642SOL    HW120169   4.199   0.839   6.929
 6642SOL    HW220170   4.118   0.726   6.868
 6643SOL     OW20171   4.984   0.383   6.875
 6643SOL    HW120172   5.011   0.461   6.924
 6643SOL    HW220173   4.895   0.403   6.846
 6644SOL     OW20174   3.816   1.571   6.864
 6644SOL    HW120175   3.754   1.611   6.927
 6644SOL    HW220176   3.895   1.555   6.916
 6645SOL     OW20177   4.057   1.122   6.075
 6645SOL    HW120178   4.059   1.196   6.014
 6645SOL    HW220179   4.056   1.044   6.018
 6646SOL     OW20180   4.274   0.532   6.443
 6646SOL    HW120181   4.286   0.591   6.368
 6646SOL    HW220182   4.343   0.558   6.504
 6647SOL     OW20183   4.971   1.351   5.977
 6647SOL    HW120184   5.026   1.422   6.010
 6647SOL    HW220185   4.883   1.372   6.010
 6648SOL     OW20186   5.011   1.446   6.749
 6648SOL    HW120187   5.045   1.424   6.836
 6648SOL    HW220188   4.947   1.377   6.731
 6649SOL     OW20189   5.294   0.623   6.071
 6649SOL    HW120190   5.247   0.674   6.136
 6649SOL    HW220191   5.345   0.687   6.022
 6650SOL     OW20192   4.085   1.498   6.908
 6650SOL    HW120193   4.059   1.459   6.825
 6650SOL    HW220194   4.176   1.524   6.896
 6651SOL     OW20195   4.310   0.872   6.624
 6651SOL    HW120196   4.338   0.963   6.625
 6651SOL    HW220197   4.255   0.863   6.702
 6652SOL     OW20198   5.062   0.860   6.590
 6652SOL    HW120199   4.976   0.835   6.557
 6652SOL    HW220200   5.114   0.779   6.586
 6653SOL     OW20201   4.923   0.527   5.847
 6653SOL    HW120202   4.931   0.450   5.902
 6653SOL    HW220203   4.881   0.592   5.903
 6654SOL     OW20204   4.034   0.207   6.834
 6654SOL    HW120205   3.987   0.201   6.918
 6654SOL    HW220206   4.031   0.118   6.800
 6655SOL     OW20207   3.747   1.304   6.866
 6655SOL    HW120208   3.799   1.260   6.933
 6655SOL    HW220209   3.777   1.394   6.867
 6656SOL     OW20210   4.445   0.624   6.637
 6656SOL    HW120211   4.524   0.615   6.583
 6656SOL    HW220212   4.417   0.715   6.624
 6657SOL     OW20213   4.044   0.057   6.213
 6657SOL    HW120214   4.021   0.145   6.243
 6657SOL    HW220215   3.978   0.000   6.252
 6658SOL     OW20216   5.346   0.397   5.922
 6658SOL    HW120217   5.375   0.326   5.978
 6658SOL    HW220218   5.317   0.465   5.982
 6659SOL     OW20219   4.752   0.760   6.551
 6659SOL    HW120220   4.741   0.774   6.645
 6659SOL    HW220221   4.727   0.668   6.538
 6660SOL     OW20222   5.266   0.228   5.718
 6660SOL    HW120223   5.172   0.228   5.732
 6660SOL    HW220224   5.300   0.289   5.785
 6661SOL     OW20225   5.008   0.823   5.612
 6661SOL    HW120226   5.051   0.738   5.617
 6661SOL    HW220227   5.042   0.862   5.531
 6662SOL     OW20228   4.797   1.340   6.440
 6662SOL    HW120229   4.803   1.268   6.376
 6662SOL    HW220230   4.852   1.409   6.403
 6663SOL     OW20231   4.035   0.812   6.531
 6663SOL    HW120232   4.128   0.834   6.524
 6663SOL    HW220233   4.034   0.722   6.564
 6664SOL     OW20234   4.067   0.543   6.611
 6664SOL    HW120235   4.022   0.461   6.593
 6664SOL    HW220236   4.141   0.544   6.550
 6665SOL     OW20237   4.864   0.219   0.073
 6665SOL    HW120238   4.886   0.289   0.134
 6665SOL    HW220239   4.890   0.253   6.987
 6666SOL     OW20240   3.733   1.315   5.778
 6666SOL    HW120241   3.645   1.332   5.743
 6666SOL    HW220242   3.727   1.226   5.814
 6667SOL     OW20243   3.811   1.788   6.525
 6667SOL    HW120244   3.784   1.708   6.480
 6667SOL    HW220245   3.903   1.799   6.501
 6668SOL     OW20246   4.213   1.576   6.491
 6668SOL    HW120247   4.282   1.638   6.515
 6668SOL    HW220248   4.257   1.512   6.434
 6669SOL     OW20249   4.701   0.783   6.822
 6669SOL    HW120250   4.777   0.763   6.877
 6669SOL    HW220251   4.626   0.755   6.874
 6670SOL     OW20252   3.777   0.555   6.716
 6670SOL    HW120253   3.820   0.509   6.644
 6670SOL    HW220254   3.849   0.580   6.775
 6671SOL     OW20255   4.541   0.575   5.954
 6671SOL    HW120256   4.548   0.500   5.895
 6671SOL    HW220257   4.466   0.624   5.922
 6672SOL     OW20258   5.373   0.613   6.748
 6672SOL    HW120259   5.362   0.559   6.827
 6672SOL    HW220260   5.464   0.601   6.723
 6673SOL     OW20261   4.405   0.468   6.856
 6673SOL    HW120262   4.374   0.383   6.827
 6673SOL    HW220263   4.411   0.520   6.776
 6674SOL     OW20264   4.672   1.662   6.995
 6674SOL    HW120265   4.640   1.648   6.906
 6674SOL    HW220266   4.645   1.751   0.017
 6675SOL     OW20267   4.182   0.491   5.759
 6675SOL    HW120268   4.242   0.561   5.785
 6675SOL    HW220269   4.096   0.534   5.752
 6676SOL     OW20270   3.907   1.159   0.042
 6676SOL    HW120271   3.941   1.108   0.116
 6676SOL    HW220272   3.909   1.098   6.969
 6677SOL     OW20273   5.000   1.000   6.817
 6677SOL    HW120274   5.034   0.956   6.740
 6677SOL    HW220275   4.984   1.090   6.788
 6678SOL     OW20276   5.042   0.855   5.887
 6678SOL    HW120277   4.968   0.826   5.940
 6678SOL    HW220278   5.013   0.843   5.797
 6679SOL     OW20279   5.472   1.765   6.718
 6679SOL    HW120280   5.549   1.780   6.662
 6679SOL    HW220281   5.460   1.670   6.717
 6680SOL     OW20282   4.972   1.723   6.699
 6680SOL    HW120283   5.053   1.748   6.655
 6680SOL    HW220284   4.981   1.630   6.718
 6681SOL     OW20285   3.810   1.260   6.601
 6681SOL    HW120286   3.786   1.271   6.693
 6681SOL    HW220287   3.741   1.205   6.564
 6682SOL     OW20288   5.432   0.176   6.056
 6682SOL    HW120289   5.511   0.155   6.007
 6682SOL    HW220290   5.433   0.114   6.130
 6683SOL     OW20291   5.117   1.568   6.079
 6683SOL    HW120292   5.175   1.602   6.010
 6683SOL    HW220293   5.066   1.644   6.108
 6684SOL     OW20294   5.001   0.929   6.255
 6684SOL    HW120295   5.075   0.869   6.267
 6684SOL    HW220296   5.036   1.000   6.202
 6685SOL     OW20297   4.392   1.628   5.742
 6685SOL    HW120298   4.405   1.642   5.649
 6685SOL    HW220299   4.337   1.549   5.747
 6686SOL     OW20300   5.593   0.162   6.534
 6686SOL    HW120301   5.579   0.068   6.545
 6686SOL    HW220302   5.505   0.198   6.520
 6687SOL     OW20303   3.983   0.311   6.301
 6687SOL    HW120304   3.898   0.346   6.276
 6687SOL    HW220305   3.984   0.316   6.397
 6688SOL     OW20306   4.932   1.599   5.619
 6688SOL    HW120307   4.921   1.508   5.646
 6688SOL    HW220308   4.865   1.613   5.552
 6689SOL     OW20309   4.495   1.026   6.956
 6689SOL    HW120310   4.547   0.994   6.883
 6689SOL    HW220311   4.543   1.101   6.989
 6690SOL     OW20312   4.641   0.910   5.877
 6690SOL    HW120313   4.700   0.943   5.810
 6690SOL    HW220314   4.691   0.843   5.923
 6691SOL     OW20315   5.212   1.630   5.632
 6691SOL    HW120316   5.118   1.619   5.616
 6691SOL    HW220317   5.250   1.636   5.544
 6692SOL     OW20318   5.334   1.286   6.828
 6692SOL    HW120319   5.419   1.283   6.872
 6692SOL    HW220320   5.271   1.263   6.896
 6693SOL     OW20321   4.787   1.110   6.297
 6693SOL    HW120322   4.714   1.060   6.333
 6693SOL    HW220323   4.851   1.044   6.271
 6694SOL     OW20324   4.752   0.243   6.520
 6694SOL    HW120325   4.725   0.188   6.446
 6694SOL    HW220326   4.748   0.185   6.595
 6695SOL     OW20327   4.330   1.488   6.065
 6695SOL    HW120328   4.379   1.438   6.000
 6695SOL    HW220329   4.253   1.520   6.018
 6696SOL     OW20330   5.426   0.436   6.949
 6696SOL    HW120331   5.482   0.441   0.026
 6696SOL    HW220332   5.440   0.348   6.915
 6697SOL     OW20333   3.987   1.342   5.880
 6697SOL    HW120334   3.895   1.337   5.854
 6697SOL    HW220335   3.986   1.383   5.966
 6698SOL     OW20336   3.799   0.332   5.621
 6698SOL    HW120337   3.707   0.317   5.601
 6698SOL    HW220338   3.823   0.408   5.569
 6699SOL     OW20339   3.793   0.174   5.895
 6699SOL    HW120340   3.802   0.240   5.826
 6699SOL    HW220341   3.839   0.097   5.862
 6700SOL     OW20342   4.902   1.333   5.705
 6700SOL    HW120343   4.812   1.302   5.706
 6700SOL    HW220344   4.928   1.335   5.797
 6701SOL     OW20345   5.215   1.784   6.578
 6701SOL    HW120346   5.231   1.850   6.511
 6701SOL    HW220347   5.301   1.771   6.619
 6702SOL     OW20348   5.220   1.299   0.282
 6702SOL    HW120349   5.131   1.301   0.317
 6702SOL    HW220350   5.236   1.207   0.263
 6703SOL     OW20351   4.116   1.730   0.094
 6703SOL    HW120352   4.037   1.779   0.116
 6703SOL    HW220353   4.097   1.640   0.121
 6704SOL     OW20354   5.426   0.881   6.832
 6704SOL    HW120355   5.395   0.796   6.800
 6704SOL    HW220356   5.391   0.944   6.769
 6705SOL     OW20357   4.944   0.322   6.038
 6705SOL    HW120358   5.013   0.255   6.033
 6705SOL    HW220359   4.965   0.372   6.116
 6706SOL     OW20360   4.310   0.734   6.258
 6706SOL    HW120361   4.350   0.820   6.244
 6706SOL    HW220362   4.246   0.725   6.188
 6707SOL     OW20363   5.486   0.897   0.103
 6707SOL    HW120364   5.483   0.991   0.122
 6707SOL    HW220365   5.467   0.891   0.009
 6708SOL     OW20366   4.587   1.364   5.631
 6708SOL    HW120367   4.551   1.389   5.716
 6708SOL    HW220368   4.602   1.447   5.586
 6709SOL     OW20369   4.390   1.781   6.525
 6709SOL    HW120370   4.370   1.873   6.505
 6709SOL    HW220371   4.485   1.776   6.519
 6710SOL     OW20372   4.594   0.971   6.440
 6710SOL    HW120373   4.642   0.898   6.479
 6710SOL    HW220374   4.557   1.018   6.515
 6711SOL     OW20375   4.800   0.988   5.674
 6711SOL    HW120376   4.779   1.040   5.597
 6711SOL    HW220377   4.874   0.933   5.647
 6712SOL     OW20378   5.572   1.553   6.426
 6712SOL    HW120379   5.491   1.544   6.377
 6712SOL    HW220380   5.558   1.505   6.507
 6713SOL     OW20381   3.815   1.225   6.250
 6713SOL    HW120382   3.828   1.183   6.335
 6713SOL    HW220383   3.884   1.188   6.194
 6714SOL     OW20384   5.569   0.197   6.842
 6714SOL    HW120385   5.504   0.127   6.834
 6714SOL    HW220386   5.587   0.224   6.752
 6715SOL     OW20387   4.151   0.428   6.108
 6715SOL    HW120388   4.180   0.356   6.052
 6715SOL    HW220389   4.101   0.386   6.178
 6716SOL     OW20390   5.408   1.501   6.666
 6716SOL    HW120391   5.330   1.485   6.613
 6716SOL    HW220392   5.408   1.431   6.731
 6717SOL     OW20393   4.035   0.550   6.883
 6717SOL    HW120394   4.100   0.495   6.926
 6717SOL    HW220395   4.055   0.543   6.789
 6718SOL     OW20396   4.557   1.578   6.257
 6718SOL    HW120397   4.534   1.646   6.195
 6718SOL    HW220398   4.481   1.520   6.259
 6719SOL     OW20399   5.130   0.212   6.723
 6719SOL    HW120400   5.215   0.189   6.759
 6719SOL    HW220401   5.087   0.264   6.791
 6720SOL     OW20402   4.722   0.049   6.710
 6720SOL    HW120403   4.637   0.005   6.708
 6720SOL    HW220404   4.761   0.023   6.794
 6721SOL     OW20405   4.500   1.334   5.907
 6721SOL    HW120406   4.473   1.242   5.916
 6721SOL    HW220407   4.580   1.341   5.958
 6722SOL     OW20408   4.343   1.561   6.859
 6722SOL    HW120409   4.344   1.653   6.886
 6722SOL    HW220410   4.429   1.548   6.817
 6723SOL     OW20411   5.047   0.013   5.781
 6723SOL    HW120412   5.085   6.942   5.728
 6723SOL    HW220413   4.974   6.971   5.826
 6724SOL     OW20414   4.990   0.452   6.272
 6724SOL    HW120415   4.947   0.538   6.273
 6724SOL    HW220416   5.008   0.434   6.364
 6725SOL     OW20417   5.343   0.262   6.500
 6725SOL    HW120418   5.253   0.238   6.523
 6725SOL    HW220419   5.334   0.322   6.426
 6726SOL     OW20420   3.766   1.064   5.894
 6726SOL    HW120421   3.859   1.056   5.876
 6726SOL    HW220422   3.738   0.975   5.916
 6727SOL     OW20423   4.614   1.663   5.921
 6727SOL    HW120424   4.538   1.647   5.865
 6727SOL    HW220425   4.587   1.734   5.979
 6728SOL     OW20426   3.945   2.505   0.140
 6728SOL    HW120427   3.853   2.490   0.163
 6728SOL    HW220428   3.949   2.487   0.046
 6729SOL     OW20429   3.948   2.147   0.993
 6729SOL    HW120430   3.976   2.111   1.077
 6729SOL    HW220431   3.858   2.114   0.981
 6730SOL     OW20432   3.722   2.250   0.645
 6730SOL    HW120433   3.643   2.283   0.688
 6730SOL    HW220434   3.694   2.168   0.604
 6731SOL     OW20435   4.293   3.161   1.187
 6731SOL    HW120436   4.208   3.165   1.143
 6731SOL    HW220437   4.309   3.250   1.217
 6732SOL     OW20438   5.298   3.378   0.710
 6732SOL    HW120439   5.254   3.352   0.791
 6732SOL    HW220440   5.228   3.377   0.644
 6733SOL     OW20441   4.856   2.559   0.695
 6733SOL    HW120442   4.905   2.641   0.684
 6733SOL    HW220443   4.808   2.571   0.777
 6734SOL     OW20444   5.516   2.438   0.199
 6734SOL    HW120445   5.452   2.488   0.148
 6734SOL    HW220446   5.464   2.382   0.256
 6735SOL     OW20447   4.469   2.999   1.050
 6735SOL    HW120448   4.403   3.037   1.108
 6735SOL    HW220449   4.508   3.074   1.006
 6736SOL     OW20450   4.602   2.621   1.825
 6736SOL    HW120451   4.589   2.692   1.888
 6736SOL    HW220452   4.622   2.666   1.743
 6737SOL     OW20453   4.410   2.854   0.645
 6737SOL    HW120454   4.476   2.850   0.714
 6737SOL    HW220455   4.342   2.911   0.681
 6738SOL     OW20456   4.438   3.012   1.822
 6738SOL    HW120457   4.487   3.088   1.852
 6738SOL    HW220458   4.359   3.048   1.781
 6739SOL     OW20459   4.055   3.277   1.067
 6739SOL    HW120460   3.981   3.235   1.022
 6739SOL    HW220461   4.099   3.328   0.999
 6740SOL     OW20462   5.182   3.365   1.363
 6740SOL    HW120463   5.237   3.443   1.372
 6740SOL    HW220464   5.113   3.376   1.429
 6741SOL     OW20465   4.176   2.253   1.477
 6741SOL    HW120466   4.251   2.195   1.485
 6741SOL    HW220467   4.100   2.198   1.496
 6742SOL     OW20468   5.328   2.307   0.749
 6742SOL    HW120469   5.259   2.326   0.686
 6742SOL    HW220470   5.330   2.382   0.808
 6743SOL     OW20471   3.939   3.588   0.469
 6743SOL    HW120472   3.963   3.663   0.524
 6743SOL    HW220473   4.022   3.559   0.431
 6744SOL     OW20474   4.862   3.204   1.695
 6744SOL    HW120475   4.903   3.197   1.781
 6744SOL    HW220476   4.810   3.124   1.686
 6745SOL     OW20477   3.938   3.309   0.531
 6745SOL    HW120478   3.919   3.401   0.549
 6745SOL    HW220479   3.891   3.261   0.599
 6746SOL     OW20480   3.997   2.954   0.896
 6746SOL    HW120481   3.987   2.865   0.930
 6746SOL    HW220482   3.934   3.006   0.946
 6747SOL     OW20483   4.323   3.655   1.426
 6747SOL    HW120484   4.243   3.637   1.475
 6747SOL    HW220485   4.349   3.743   1.454
 6748SOL     OW20486   4.306   2.825   0.148
 6748SOL    HW120487   4.364   2.847   0.074
 6748SOL    HW220488   4.342   2.873   0.222
 6749SOL     OW20489   5.319   1.990   1.463
 6749SOL    HW120490   5.346   2.069   1.417
 6749SOL    HW220491   5.297   2.021   1.551
 6750SOL     OW20492   3.848   2.505   0.559
 6750SOL    HW120493   3.810   2.420   0.584
 6750SOL    HW220494   3.837   2.560   0.637
 6751SOL     OW20495   5.559   3.623   0.348
 6751SOL    HW120496   5.631   3.597   0.406
 6751SOL    HW220497   5.568   3.718   0.339
 6752SOL     OW20498   3.733   3.453   0.132
 6752SOL    HW120499   3.667   3.384   0.123
 6752SOL    HW220500   3.719   3.488   0.220
 6753SOL     OW20501   5.415   2.775   0.649
 6753SOL    HW120502   5.494   2.729   0.620
 6753SOL    HW220503   5.392   2.832   0.575
 6754SOL     OW20504   5.377   2.956   0.444
 6754SOL    HW120505   5.441   2.978   0.376
 6754SOL    HW220506   5.388   3.024   0.511
 6755SOL     OW20507   3.847   2.607   1.585
 6755SOL    HW120508   3.937   2.640   1.585
 6755SOL    HW220509   3.792   2.685   1.581
 6756SOL     OW20510   4.342   3.251   0.741
 6756SOL    HW120511   4.298   3.167   0.750
 6756SOL    HW220512   4.330   3.275   0.649
 6757SOL     OW20513   5.007   3.097   1.421
 6757SOL    HW120514   5.037   3.028   1.360
 6757SOL    HW220515   5.068   3.091   1.494
 6758SOL     OW20516   4.545   1.870   0.522
 6758SOL    HW120517   4.586   1.953   0.496
 6758SOL    HW220518   4.452   1.890   0.525
 6759SOL     OW20519   3.910   2.821   1.284
 6759SOL    HW120520   3.997   2.783   1.268
 6759SOL    HW220521   3.854   2.781   1.218
 6760SOL     OW20522   5.206   2.893   0.212
 6760SOL    HW120523   5.145   2.828   0.246
 6760SOL    HW220524   5.292   2.865   0.244
 6761SOL     OW20525   4.906   3.676   1.627
 6761SOL    HW120526   4.911   3.738   1.555
 6761SOL    HW220527   4.924   3.591   1.588
 6762SOL     OW20528   4.068   2.108   1.840
 6762SOL    HW120529   4.107   2.194   1.855
 6762SOL    HW220530   3.974   2.122   1.854
 6763SOL     OW20531   5.191   3.282   0.944
 6763SOL    HW120532   5.125   3.297   1.012
 6763SOL    HW220533   5.179   3.190   0.919
 6764SOL     OW20534   5.366   3.624   0.586
 6764SOL    HW120535   5.349   3.592   0.497
 6764SOL    HW220536   5.355   3.547   0.641
 6765SOL     OW20537   4.325   2.574   0.267
 6765SOL    HW120538   4.328   2.662   0.229
 6765SOL    HW220539   4.263   2.581   0.339
 6766SOL     OW20540   5.003   2.230   0.934
 6766SOL    HW120541   4.914   2.196   0.943
 6766SOL    HW220542   5.056   2.176   0.993
 6767SOL     OW20543   5.295   3.540   0.319
 6767SOL    HW120544   5.386   3.568   0.314
 6767SOL    HW220545   5.268   3.531   0.228
 6768SOL     OW20546   4.515   2.479   1.445
 6768SOL    HW120547   4.489   2.453   1.533
 6768SOL    HW220548   4.482   2.409   1.389
 6769SOL     OW20549   5.115   2.336   1.677
 6769SOL    HW120550   5.120   2.381   1.762
 6769SOL    HW220551   5.172   2.260   1.687
 6770SOL     OW20552   4.672   2.746   1.587
 6770SOL    HW120553   4.727   2.679   1.548
 6770SOL    HW220554   4.624   2.784   1.513
 6771SOL     OW20555   4.719   2.270   1.231
 6771SOL    HW120556   4.629   2.286   1.259
 6771SOL    HW220557   4.710   2.229   1.145
 6772SOL     OW20558   4.781   2.562   0.426
 6772SOL    HW120559   4.800   2.558   0.520
 6772SOL    HW220560   4.696   2.518   0.417
 6773SOL     OW20561   3.817   2.671   0.776
 6773SOL    HW120562   3.895   2.672   0.832
 6773SOL    HW220563   3.767   2.748   0.804
 6774SOL     OW20564   3.848   3.737   1.584
 6774SOL    HW120565   3.852   3.713   1.677
 6774SOL    HW220566   3.765   3.699   1.554
 6775SOL     OW20567   4.613   2.205   0.209
 6775SOL    HW120568   4.652   2.265   0.145
 6775SOL    HW220569   4.640   2.118   0.180
 6776SOL     OW20570   5.425   2.432   1.831
 6776SOL    HW120571   5.392   2.506   1.781
 6776SOL    HW220572   5.454   2.369   1.765
 6777SOL     OW20573   5.111   3.002   0.557
 6777SOL    HW120574   5.189   2.990   0.503
 6777SOL    HW220575   5.057   3.062   0.507
 6778SOL     OW20576   4.276   2.036   0.899
 6778SOL    HW120577   4.278   2.069   0.989
 6778SOL    HW220578   4.273   2.115   0.845
 6779SOL     OW20579   4.720   3.301   0.474
 6779SOL    HW120580   4.691   3.377   0.424
 6779SOL    HW220581   4.693   3.319   0.564
 6780SOL     OW20582   4.078   3.677   0.872
 6780SOL    HW120583   4.122   3.592   0.877
 6780SOL    HW220584   4.147   3.741   0.891
 6781SOL     OW20585   5.527   2.907   0.876
 6781SOL    HW120586   5.477   2.890   0.797
 6781SOL    HW220587   5.461   2.916   0.945
 6782SOL     OW20588   4.949   3.403   1.514
 6782SOL    HW120589   4.938   3.330   1.575
 6782SOL    HW220590   4.883   3.388   1.446
 6783SOL     OW20591   4.034   2.822   0.225
 6783SOL    HW120592   4.125   2.828   0.194
 6783SOL    HW220593   4.010   2.730   0.211
 6784SOL     OW20594   5.208   2.608   0.720
 6784SOL    HW120595   5.206   2.573   0.809
 6784SOL    HW220596   5.285   2.665   0.718
 6785SOL     OW20597   4.195   3.132   1.739
 6785SOL    HW120598   4.169   3.137   1.647
 6785SOL    HW220599   4.112   3.128   1.787
 6786SOL     OW20600   4.846   3.632   0.241
 6786SOL    HW120601   4.778   3.586   0.290
 6786SOL    HW220602   4.878   3.567   0.178
 6787SOL     OW20603   3.927   2.130   1.503
 6787SOL    HW120604   3.847   2.182   1.505
 6787SOL    HW220605   3.902   2.045   1.539
 6788SOL     OW20606   5.376   3.294   0.111
 6788SOL    HW120607   5.320   3.362   0.073
 6788SOL    HW220608   5.320   3.249   0.173
 6789SOL     OW20609   4.204   3.558   0.382
 6789SOL    HW120610   4.237   3.639   0.421
 6789SOL    HW220611   4.257   3.547   0.304
 6790SOL     OW20612   3.982   3.652   1.226
 6790SOL    HW120613   4.030   3.579   1.265
 6790SOL    HW220614   3.969   3.627   1.135
 6791SOL     OW20615   4.664   3.563   0.896
 6791SOL    HW120616   4.744   3.514   0.917
 6791SOL    HW220617   4.623   3.512   0.826
 6792SOL     OW20618   4.125   2.553   0.466
 6792SOL    HW120619   4.141   2.460   0.485
 6792SOL    HW220620   4.032   2.566   0.483
 6793SOL     OW20621   5.249   2.087   1.723
 6793SOL    HW120622   5.260   2.106   1.816
 6793SOL    HW220623   5.181   2.019   1.720
 6794SOL     OW20624   4.487   2.140   1.757
 6794SOL    HW120625   4.568   2.090   1.753
 6794SOL    HW220626   4.441   2.107   1.834
 6795SOL     OW20627   4.598   3.385   1.196
 6795SOL    HW120628   4.581   3.347   1.110
 6795SOL    HW220629   4.668   3.331   1.232
 6796SOL     OW20630   5.061   2.452   1.433
 6796SOL    HW120631   5.092   2.421   1.518
 6796SOL    HW220632   5.098   2.539   1.423
 6797SOL     OW20633   4.543   3.250   0.950
 6797SOL    HW120634   4.627   3.239   0.906
 6797SOL    HW220635   4.480   3.257   0.878
 6798SOL     OW20636   4.655   2.371   0.901
 6798SOL    HW120637   4.628   2.362   0.809
 6798SOL    HW220638   4.684   2.283   0.926
 6799SOL     OW20639   4.279   1.933   0.501
 6799SOL    HW120640   4.198   1.933   0.553
 6799SOL    HW220641   4.267   2.007   0.440
 6800SOL     OW20642   5.140   3.079   0.006
 6800SOL    HW120643   5.166   3.003   0.059
 6800SOL    HW220644   5.062   3.113   0.049
 6801SOL     OW20645   4.671   2.110   0.462
 6801SOL    HW120646   4.642   2.150   0.380
 6801SOL    HW220647   4.765   2.126   0.465
 6802SOL     OW20648   4.804   2.548   1.456
 6802SOL    HW120649   4.739   2.477   1.459
 6802SOL    HW220650   4.888   2.502   1.450
 6803SOL     OW20651   4.939   3.434   0.798
 6803SOL    HW120652   4.953   3.497   0.728
 6803SOL    HW220653   5.012   3.449   0.859
 6804SOL     OW20654   4.204   3.016   0.732
 6804SOL    HW120655   4.133   2.995   0.793
 6804SOL    HW220656   4.164   3.006   0.645
 6805SOL     OW20657   4.979   3.648   0.614
 6805SOL    HW120658   5.030   3.714   0.568
 6805SOL    HW220659   4.908   3.697   0.655
 6806SOL     OW20660   4.795   2.466   0.026
 6806SOL    HW120661   4.702   2.469   0.049
 6806SOL    HW220662   4.839   2.438   0.106
 6807SOL     OW20663   3.812   2.413   1.395
 6807SOL    HW120664   3.903   2.415   1.367
 6807SOL    HW220665   3.805   2.483   1.460
 6808SOL     OW20666   4.281   2.090   1.172
 6808SOL    HW120667   4.322   2.017   1.218
 6808SOL    HW220668   4.189   2.087   1.199
 6809SOL     OW20669   4.591   2.317   0.642
 6809SOL    HW120670   4.551   2.374   0.576
 6809SOL    HW220671   4.614   2.237   0.593
 6810SOL     OW20672   4.746   1.912   0.742
 6810SOL    HW120673   4.682   1.910   0.671
 6810SOL    HW220674   4.720   1.840   0.800
 6811SOL     OW20675   5.165   3.021   0.859
 6811SOL    HW120676   5.093   2.959   0.858
 6811SOL    HW220677   5.191   3.029   0.767
 6812SOL     OW20678   5.190   2.474   0.967
 6812SOL    HW120679   5.132   2.397   0.970
 6812SOL    HW220680   5.246   2.465   1.043
 6813SOL     OW20681   5.548   2.666   0.396
 6813SOL    HW120682   5.610   2.605   0.436
 6813SOL    HW220683   5.545   2.641   0.304
 6814SOL     OW20684   4.199   3.291   0.155
 6814SOL    HW120685   4.142   3.242   0.213
 6814SOL    HW220686   4.158   3.284   0.069
 6815SOL     OW20687   5.401   3.126   0.651
 6815SOL    HW120688   5.496   3.125   0.663
 6815SOL    HW220689   5.376   3.217   0.666
 6816SOL     OW20690   5.113   2.414   0.061
 6816SOL    HW120691   5.056   2.411   0.138
 6816SOL    HW220692   5.169   2.336   0.070
 6817SOL     OW20693   4.230   2.123   0.310
 6817SOL    HW120694   4.253   2.068   0.235
 6817SOL    HW220695   4.207   2.208   0.272
 6818SOL     OW20696   5.471   3.105   1.559
 6818SOL    HW120697   5.558   3.067   1.549
 6818SOL    HW220698   5.487   3.194   1.589
 6819SOL     OW20699   4.777   3.217   1.333
 6819SOL    HW120700   4.701   3.184   1.382
 6819SOL    HW220701   4.852   3.174   1.374
 6820SOL     OW20702   5.333   3.490   1.660
 6820SOL    HW120703   5.324   3.525   1.571
 6820SOL    HW220704   5.415   3.440   1.658
 6821SOL     OW20705   4.862   3.077   1.102
 6821SOL    HW120706   4.799   3.113   1.165
 6821SOL    HW220707   4.833   3.110   1.017
 6822SOL     OW20708   5.345   2.956   1.075
 6822SOL    HW120709   5.337   3.020   1.146
 6822SOL    HW220710   5.272   2.976   1.017
 6823SOL     OW20711   4.643   1.953   1.390
 6823SOL    HW120712   4.665   1.936   1.299
 6823SOL    HW220713   4.722   1.993   1.427
 6824SOL     OW20714   4.708   2.977   1.724
 6824SOL    HW120715   4.617   2.993   1.748
 6824SOL    HW220716   4.704   2.898   1.669
 6825SOL     OW20717   4.437   2.924   0.372
 6825SOL    HW120718   4.419   2.903   0.464
 6825SOL    HW220719   4.513   2.871   0.349
 6826SOL     OW20720   4.146   2.683   1.253
 6826SOL    HW120721   4.214   2.692   1.320
 6826SOL    HW220722   4.112   2.594   1.266
 6827SOL     OW20723   4.986   2.235   1.283
 6827SOL    HW120724   5.018   2.313   1.327
 6827SOL    HW220725   4.896   2.255   1.261
 6828SOL     OW20726   3.799   3.435   1.359
 6828SOL    HW120727   3.769   3.504   1.299
 6828SOL    HW220728   3.894   3.435   1.348
 6829SOL     OW20729   4.097   2.981   0.486
 6829SOL    HW120730   4.074   3.053   0.427
 6829SOL    HW220731   4.080   2.902   0.435
 6830SOL     OW20732   4.270   2.391   0.859
 6830SOL    HW120733   4.284   2.449   0.784
 6830SOL    HW220734   4.338   2.417   0.922
 6831SOL     OW20735   4.971   3.204   0.406
 6831SOL    HW120736   5.021   3.279   0.439
 6831SOL    HW220737   4.882   3.220   0.435
 6832SOL     OW20738   5.016   3.324   1.148
 6832SOL    HW120739   5.070   3.328   1.227
 6832SOL    HW220740   4.962   3.246   1.161
 6833SOL     OW20741   5.315   2.487   0.483
 6833SOL    HW120742   5.257   2.529   0.546
 6833SOL    HW220743   5.368   2.558   0.447
 6834SOL     OW20744   4.069   3.393   1.308
 6834SOL    HW120745   4.058   3.347   1.225
 6834SOL    HW220746   4.164   3.404   1.317
 6835SOL     OW20747   4.142   2.609   1.605
 6835SOL    HW120748   4.206   2.651   1.547
 6835SOL    HW220749   4.178   2.521   1.620
 6836SOL     OW20750   5.335   2.644   1.688
 6836SOL    HW120751   5.249   2.685   1.682
 6836SOL    HW220752   5.387   2.685   1.619
 6837SOL     OW20753   4.720   1.997   1.756
 6837SOL    HW120754   4.778   2.070   1.734
 6837SOL    HW220755   4.769   1.919   1.729
 6838SOL     OW20756   4.220   1.896   1.754
 6838SOL    HW120757   4.172   1.845   1.688
 6838SOL    HW220758   4.164   1.972   1.770
 6839SOL     OW20759   4.312   2.735   1.034
 6839SOL    HW120760   4.342   2.825   1.034
 6839SOL    HW220761   4.253   2.730   1.109
 6840SOL     OW20762   5.067   2.720   1.020
 6840SOL    HW120763   4.982   2.705   0.980
 6840SOL    HW220764   5.114   2.638   1.009
 6841SOL     OW20765   4.918   2.387   0.264
 6841SOL    HW120766   4.928   2.310   0.321
 6841SOL    HW220767   4.880   2.454   0.321
 6842SOL     OW20768   4.020   2.058   1.246
 6842SOL    HW120769   3.983   2.089   1.329
 6842SOL    HW220770   4.002   1.964   1.246
 6843SOL     OW20771   3.769   3.173   1.273
 6843SOL    HW120772   3.801   3.117   1.344
 6843SOL    HW220773   3.774   3.262   1.308
 6844SOL     OW20774   4.443   2.490   1.052
 6844SOL    HW120775   4.520   2.480   0.996
 6844SOL    HW220776   4.413   2.579   1.036
 6845SOL     OW20777   5.466   2.821   1.861
 6845SOL    HW120778   5.423   2.754   1.808
 6845SOL    HW220779   5.404   2.840   1.931
 6846SOL     OW20780   4.034   1.927   0.627
 6846SOL    HW120781   4.009   2.017   0.647
 6846SOL    HW220782   4.041   1.884   0.712
 6847SOL     OW20783   5.350   2.238   0.371
 6847SOL    HW120784   5.376   2.176   0.439
 6847SOL    HW220785   5.331   2.319   0.419
 6848SOL     OW20786   4.753   2.620   0.957
 6848SOL    HW120787   4.743   2.637   1.051
 6848SOL    HW220788   4.726   2.528   0.947
 6849SOL     OW20789   4.704   3.427   1.723
 6849SOL    HW120790   4.688   3.471   1.640
 6849SOL    HW220791   4.749   3.346   1.699
 6850SOL     OW20792   5.573   3.362   1.603
 6850SOL    HW120793   5.596   3.390   1.515
 6850SOL    HW220794   5.654   3.375   1.654
 6851SOL     OW20795   4.075   2.777   1.812
 6851SOL    HW120796   4.156   2.797   1.859
 6851SOL    HW220797   4.101   2.715   1.744
 6852SOL     OW20798   5.200   2.162   0.153
 6852SOL    HW120799   5.170   2.072   0.169
 6852SOL    HW220800   5.258   2.181   0.226
 6853SOL     OW20801   5.023   2.684   0.041
 6853SOL    HW120802   5.063   2.599   0.023
 6853SOL    HW220803   5.042   2.736   6.963
 6854SOL     OW20804   4.793   3.201   0.859
 6854SOL    HW120805   4.799   3.130   0.795
 6854SOL    HW220806   4.850   3.270   0.823
 6855SOL     OW20807   4.032   2.672   0.949
 6855SOL    HW120808   4.125   2.692   0.941
 6855SOL    HW220809   4.030   2.581   0.979
 6856SOL     OW20810   4.051   2.393   1.015
 6856SOL    HW120811   4.014   2.306   1.001
 6856SOL    HW220812   4.127   2.396   0.957
 6857SOL     OW20813   4.858   2.233   1.688
 6857SOL    HW120814   4.810   2.288   1.750
 6857SOL    HW220815   4.945   2.274   1.682
 6858SOL     OW20816   4.884   2.058   1.473
 6858SOL    HW120817   4.873   2.121   1.545
 6858SOL    HW220818   4.927   2.108   1.404
 6859SOL     OW20819   3.814   3.642   0.944
 6859SOL    HW120820   3.783   3.566   0.896
 6859SOL    HW220821   3.903   3.656   0.911
 6860SOL     OW20822   4.214   3.437   0.904
 6860SOL    HW120823   4.284   3.498   0.927
 6860SOL    HW220824   4.257   3.373   0.846
 6861SOL     OW20825   4.694   2.647   1.222
 6861SOL    HW120826   4.754   2.630   1.295
 6861SOL    HW220827   4.611   2.608   1.250
 6862SOL     OW20828   3.761   2.409   1.119
 6862SOL    HW120829   3.840   2.406   1.065
 6862SOL    HW220830   3.793   2.411   1.209
 6863SOL     OW20831   3.917   2.385   1.733
 6863SOL    HW120832   3.968   2.339   1.665
 6863SOL    HW220833   3.882   2.462   1.688
 6864SOL     OW20834   5.106   2.794   1.656
 6864SOL    HW120835   5.127   2.887   1.652
 6864SOL    HW220836   5.101   2.766   1.565
 6865SOL     OW20837   4.543   2.429   0.379
 6865SOL    HW120838   4.548   2.357   0.316
 6865SOL    HW220839   4.470   2.483   0.349
 6866SOL     OW20840   5.364   2.462   1.178
 6866SOL    HW120841   5.354   2.404   1.254
 6866SOL    HW220842   5.452   2.445   1.145
 6867SOL     OW20843   3.961   3.410   1.722
 6867SOL    HW120844   3.940   3.474   1.790
 6867SOL    HW220845   3.968   3.326   1.769
 6868SOL     OW20846   4.440   2.305   1.251
 6868SOL    HW120847   4.381   2.234   1.226
 6868SOL    HW220848   4.431   2.369   1.180
 6869SOL     OW20849   4.642   3.540   1.474
 6869SOL    HW120850   4.620   3.499   1.390
 6869SOL    HW220851   4.638   3.634   1.456
 6870SOL     OW20852   4.177   2.359   0.185
 6870SOL    HW120853   4.236   2.429   0.212
 6870SOL    HW220854   4.091   2.399   0.183
 6871SOL     OW20855   3.863   3.006   1.476
 6871SOL    HW120856   3.866   2.961   1.560
 6871SOL    HW220857   3.880   2.938   1.411
 6872SOL     OW20858   5.042   2.904   1.219
 6872SOL    HW120859   5.062   2.841   1.150
 6872SOL    HW220860   4.978   2.963   1.179
 6873SOL     OW20861   5.026   2.709   0.314
 6873SOL    HW120862   4.948   2.672   0.355
 6873SOL    HW220863   5.017   2.687   0.221
 6874SOL     OW20864   5.507   3.596   1.161
 6874SOL    HW120865   5.566   3.622   1.090
 6874SOL    HW220866   5.477   3.509   1.136
 6875SOL     OW20867   4.964   3.595   1.104
 6875SOL    HW120868   5.047   3.620   1.063
 6875SOL    HW220869   4.974   3.502   1.125
 6876SOL     OW20870   3.811   3.129   1.007
 6876SOL    HW120871   3.790   3.142   1.100
 6876SOL    HW220872   3.741   3.072   0.975
 6877SOL     OW20873   4.404   3.535   1.741
 6877SOL    HW120874   4.344   3.609   1.731
 6877SOL    HW220875   4.474   3.552   1.678
 6878SOL     OW20876   4.662   1.940   0.109
 6878SOL    HW120877   4.732   1.991   0.068
 6878SOL    HW220878   4.707   1.882   0.171
 6879SOL     OW20879   5.454   2.030   0.536
 6879SOL    HW120880   5.518   2.013   0.466
 6879SOL    HW220881   5.425   1.943   0.563
 6880SOL     OW20882   5.113   3.423   0.497
 6880SOL    HW120883   5.173   3.456   0.429
 6880SOL    HW220884   5.062   3.500   0.523
 6881SOL     OW20885   3.865   3.658   1.842
 6881SOL    HW120886   3.815   3.590   1.889
 6881SOL    HW220887   3.911   3.705   1.911
 6882SOL     OW20888   5.003   2.786   0.676
 6882SOL    HW120889   5.076   2.725   0.683
 6882SOL    HW220890   5.038   2.859   0.625
 6883SOL     OW20891   4.525   3.140   1.422
 6883SOL    HW120892   4.498   3.182   1.504
 6883SOL    HW220893   4.455   3.158   1.360
 6884SOL     OW20894   4.399   3.472   0.192
 6884SOL    HW120895   4.399   3.515   0.106
 6884SOL    HW220896   4.344   3.395   0.181
 6885SOL     OW20897   5.342   3.590   1.393
 6885SOL    HW120898   5.397   3.594   1.315
 6885SOL    HW220899   5.327   3.682   1.416
 6886SOL     OW20900   5.567   2.031   0.965
 6886SOL    HW120901   5.596   1.943   0.941
 6886SOL    HW220902   5.480   2.039   0.925
 6887SOL     OW20903   3.979   2.177   0.714
 6887SOL    HW120904   3.893   2.212   0.691
 6887SOL    HW220905   3.978   2.174   0.810
 6888SOL     OW20906   4.942   3.459   0.043
 6888SOL    HW120907   4.934   3.367   0.068
 6888SOL    HW220908   4.858   3.480   0.001
 6889SOL     OW20909   4.547   2.870   1.376
 6889SOL    HW120910   4.588   2.863   1.290
 6889SOL    HW220911   4.543   2.964   1.393
 6890SOL     OW20912   4.647   2.776   0.293
 6890SOL    HW120913   4.699   2.803   0.218
 6890SOL    HW220914   4.699   2.709   0.336
 6891SOL     OW20915   5.209   3.516   0.043
 6891SOL    HW120916   5.116   3.494   0.040
 6891SOL    HW220917   5.232   3.535   6.952
 6892SOL     OW20918   4.090   3.169   1.494
 6892SOL    HW120919   4.079   3.244   1.435
 6892SOL    HW220920   4.013   3.114   1.477
 6893SOL     OW20921   5.329   3.146   1.278
 6893SOL    HW120922   5.390   3.130   1.351
 6893SOL    HW220923   5.270   3.213   1.312
 6894SOL     OW20924   4.789   2.973   0.713
 6894SOL    HW120925   4.715   2.924   0.749
 6894SOL    HW220926   4.851   2.905   0.687
 6895SOL     OW20927   4.750   2.104   0.965
 6895SOL    HW120928   4.747   2.058   0.881
 6895SOL    HW220929   4.744   2.035   1.031
 6896SOL     OW20930   4.342   3.339   0.486
 6896SOL    HW120931   4.374   3.293   0.409
 6896SOL    HW220932   4.279   3.402   0.452
 6897SOL     OW20933   5.454   2.252   1.381
 6897SOL    HW120934   5.526   2.316   1.381
 6897SOL    HW220935   5.483   2.182   1.323
 6898SOL     OW20936   4.005   3.179   0.308
 6898SOL    HW120937   3.920   3.145   0.280
 6898SOL    HW220938   3.985   3.232   0.386
 6899SOL     OW20939   3.841   2.904   1.732
 6899SOL    HW120940   3.764   2.872   1.779
 6899SOL    HW220941   3.914   2.854   1.770
 6900SOL     OW20942   4.401   2.055   1.500
 6900SOL    HW120943   4.485   2.034   1.459
 6900SOL    HW220944   4.424   2.089   1.586
 6901SOL     OW20945   3.841   2.167   0.003
 6901SOL    HW120946   3.773   2.121   6.954
 6901SOL    HW220947   3.832   2.258   6.976
 6902SOL     OW20948   5.148   2.718   1.396
 6902SOL    HW120949   5.097   2.779   1.342
 6902SOL    HW220950   5.236   2.721   1.359
 6903SOL     OW20951   3.771   2.031   0.326
 6903SOL    HW120952   3.758   2.121   0.295
 6903SOL    HW220953   3.845   1.999   0.275
 6904SOL     OW20954   4.909   3.202   0.126
 6904SOL    HW120955   4.816   3.184   0.111
 6904SOL    HW220956   4.921   3.190   0.220
 6905SOL     OW20957   4.345   2.693   1.437
 6905SOL    HW120958   4.403   2.768   1.422
 6905SOL    HW220959   4.405   2.618   1.442
 6906SOL     OW20960   5.207   3.651   0.984
 6906SOL    HW120961   5.232   3.720   0.922
 6906SOL    HW220962   5.290   3.616   1.016
 6907SOL     OW20963   4.443   2.419   1.698
 6907SOL    HW120964   4.488   2.478   1.759
 6907SOL    HW220965   4.460   2.331   1.732
 6908SOL     OW20966   5.198   3.054   1.627
 6908SOL    HW120967   5.187   3.071   1.721
 6908SOL    HW220968   5.290   3.075   1.610
 6909SOL     OW20969   4.093   3.604   1.567
 6909SOL    HW120970   4.011   3.651   1.551
 6909SOL    HW220971   4.066   3.521   1.606
 6910SOL     OW20972   5.386   2.741   1.255
 6910SOL    HW120973   5.383   2.656   1.211
 6910SOL    HW220974   5.376   2.805   1.184
 6911SOL     OW20975   4.943   2.180   0.454
 6911SOL    HW120976   5.024   2.136   0.431
 6911SOL    HW220977   4.965   2.230   0.533
 6912SOL     OW20978   4.310   2.593   0.673
 6912SOL    HW120979   4.350   2.680   0.661
 6912SOL    HW220980   4.246   2.586   0.602
 6913SOL     OW20981   5.479   2.225   1.655
 6913SOL    HW120982   5.467   2.242   1.561
 6913SOL    HW220983   5.405   2.169   1.679
 6914SOL     OW20984   5.475   2.794   1.510
 6914SOL    HW120985   5.462   2.888   1.523
 6914SOL    HW220986   5.455   2.779   1.417
 6915SOL     OW20987   4.628   3.242   0.052
 6915SOL    HW120988   4.571   3.221   0.126
 6915SOL    HW220989   4.628   3.338   0.048
 6916SOL     OW20990   4.388   3.644   0.937
 6916SOL    HW120991   4.370   3.736   0.918
 6916SOL    HW220992   4.483   3.636   0.931
 6917SOL     OW20993   4.595   2.835   0.855
 6917SOL    HW120994   4.644   2.761   0.892
 6917SOL    HW220995   4.554   2.877   0.930
 6918SOL     OW20996   4.807   2.847   0.079
 6918SOL    HW120997   4.818   2.896   6.998
 6918SOL    HW220998   4.879   2.784   0.079
 6919SOL     OW20999   5.570   3.416   0.839
 6919SOL    HW121000   5.490   3.403   0.789
 6919SOL    HW221001   5.567   3.348   0.906
 6920SOL     OW21002   3.946   3.157   1.850
 6920SOL    HW121003   3.895   3.087   1.811
 6920SOL    HW221004   3.908   3.170   1.936
 6921SOL     OW21005   3.809   3.098   0.665
 6921SOL    HW121006   3.823   3.043   0.743
 6921SOL    HW221007   3.846   3.047   0.593
 6922SOL     OW21008   4.410   3.271   1.633
 6922SOL    HW121009   4.331   3.229   1.666
 6922SOL    HW221010   4.408   3.359   1.669
 6923SOL     OW21011   5.535   2.042   1.236
 6923SOL    HW121012   5.540   1.947   1.248
 6923SOL    HW221013   5.546   2.055   1.142
 6924SOL     OW21014   4.156   2.294   0.528
 6924SOL    HW121015   4.178   2.222   0.470
 6924SOL    HW221016   4.102   2.254   0.597
 6925SOL     OW21017   5.418   3.349   1.092
 6925SOL    HW121018   5.341   3.329   1.039
 6925SOL    HW221019   5.422   3.278   1.157
 6926SOL     OW21020   4.062   2.424   1.293
 6926SOL    HW121021   4.115   2.365   1.346
 6926SOL    HW221022   4.077   2.395   1.203
 6927SOL     OW21023   4.556   3.441   0.677
 6927SOL    HW121024   4.535   3.506   0.609
 6927SOL    HW221025   4.482   3.380   0.676
 6928SOL     OW21026   5.152   2.093   1.117
 6928SOL    HW121027   5.170   2.008   1.157
 6928SOL    HW221028   5.102   2.141   1.182
 6929SOL     OW21029   4.733   1.878   1.133
 6929SOL    HW121030   4.678   1.812   1.089
 6929SOL    HW221031   4.820   1.839   1.136
 6930SOL     OW21032   4.512   3.182   0.303
 6930SOL    HW121033   4.477   3.095   0.323
 6930SOL    HW221034   4.583   3.194   0.367
 6931SOL     OW21035   4.343   3.419   1.288
 6931SOL    HW121036   4.343   3.501   1.336
 6931SOL    HW221037   4.432   3.412   1.251
 6932SOL     OW21038   5.078   1.918   0.188
 6932SOL    HW121039   5.114   1.852   0.127
 6932SOL    HW221040   4.996   1.880   0.217
 6933SOL     OW21041   5.013   2.323   0.675
 6933SOL    HW121042   4.964   2.405   0.680
 6933SOL    HW221043   5.012   2.289   0.765
 6934SOL     OW21044   5.307   2.056   0.884
 6934SOL    HW121045   5.253   2.083   0.958
 6934SOL    HW221046   5.309   2.132   0.826
 6935SOL     OW21047   3.823   2.932   0.369
 6935SOL    HW121048   3.897   2.897   0.319
 6935SOL    HW221049   3.767   2.856   0.385
 6936SOL     OW21050   4.618   3.524   0.352
 6936SOL    HW121051   4.543   3.500   0.297
 6936SOL    HW221052   4.586   3.597   0.405
 6937SOL     OW21053   3.945   2.484   1.994
 6937SOL    HW121054   3.855   2.481   2.026
 6937SOL    HW221055   3.937   2.464   1.900
 6938SOL     OW21056   3.949   2.148   2.860
 6938SOL    HW121057   3.993   2.082   2.912
 6938SOL    HW221058   3.860   2.114   2.848
 6939SOL     OW21059   3.721   2.245   2.505
 6939SOL    HW121060   3.638   2.274   2.543
 6939SOL    HW221061   3.697   2.169   2.452
 6940SOL     OW21062   4.301   3.170   3.032
 6940SOL    HW121063   4.214   3.171   2.993
 6940SOL    HW221064   4.315   3.260   3.063
 6941SOL     OW21065   5.299   3.377   2.570
 6941SOL    HW121066   5.255   3.354   2.651
 6941SOL    HW221067   5.230   3.381   2.505
 6942SOL     OW21068   4.857   2.562   2.556
 6942SOL    HW121069   4.905   2.643   2.543
 6942SOL    HW221070   4.810   2.574   2.638
 6943SOL     OW21071   5.502   2.459   2.087
 6943SOL    HW121072   5.475   2.455   1.996
 6943SOL    HW221073   5.463   2.381   2.127
 6944SOL     OW21074   4.479   3.000   2.911
 6944SOL    HW121075   4.411   3.041   2.964
 6944SOL    HW221076   4.519   3.072   2.863
 6945SOL     OW21077   4.649   2.616   3.669
 6945SOL    HW121078   4.615   2.679   3.733
 6945SOL    HW221079   4.660   2.667   3.589
 6946SOL     OW21080   4.408   2.856   2.506
 6946SOL    HW121081   4.475   2.850   2.574
 6946SOL    HW221082   4.340   2.912   2.543
 6947SOL     OW21083   4.052   3.297   2.920
 6947SOL    HW121084   3.980   3.257   2.872
 6947SOL    HW221085   4.099   3.348   2.855
 6948SOL     OW21086   5.186   3.363   3.222
 6948SOL    HW121087   5.240   3.442   3.231
 6948SOL    HW221088   5.119   3.374   3.290
 6949SOL     OW21089   5.328   2.302   2.608
 6949SOL    HW121090   5.259   2.321   2.544
 6949SOL    HW221091   5.330   2.379   2.664
 6950SOL     OW21092   3.943   3.578   2.329
 6950SOL    HW121093   3.966   3.651   2.386
 6950SOL    HW221094   4.018   3.570   2.269
 6951SOL     OW21095   4.871   3.211   3.562
 6951SOL    HW121096   4.910   3.206   3.649
 6951SOL    HW221097   4.826   3.126   3.552
 6952SOL     OW21098   3.958   3.309   2.401
 6952SOL    HW121099   3.939   3.403   2.399
 6952SOL    HW221100   3.899   3.274   2.468
 6953SOL     OW21101   3.993   2.950   2.759
 6953SOL    HW121102   3.990   2.864   2.799
 6953SOL    HW221103   3.938   3.005   2.815
 6954SOL     OW21104   4.301   2.847   2.003
 6954SOL    HW121105   4.350   2.892   1.934
 6954SOL    HW221106   4.341   2.879   2.085
 6955SOL     OW21107   5.317   1.991   3.325
 6955SOL    HW121108   5.347   2.069   3.278
 6955SOL    HW221109   5.297   2.021   3.413
 6956SOL     OW21110   3.843   2.520   2.425
 6956SOL    HW121111   3.814   2.431   2.446
 6956SOL    HW221112   3.835   2.568   2.507
 6957SOL     OW21113   5.568   3.614   2.192
 6957SOL    HW121114   5.638   3.590   2.252
 6957SOL    HW221115   5.584   3.706   2.171
 6958SOL     OW21116   3.765   3.452   1.983
 6958SOL    HW121117   3.746   3.360   2.002
 6958SOL    HW221118   3.738   3.499   2.061
 6959SOL     OW21119   5.414   2.781   2.508
 6959SOL    HW121120   5.495   2.736   2.484
 6959SOL    HW221121   5.391   2.832   2.431
 6960SOL     OW21122   5.374   2.964   2.293
 6960SOL    HW121123   5.461   2.964   2.252
 6960SOL    HW221124   5.382   3.028   2.364
 6961SOL     OW21125   4.341   3.252   2.599
 6961SOL    HW121126   4.295   3.168   2.607
 6961SOL    HW221127   4.324   3.280   2.509
 6962SOL     OW21128   5.005   3.096   3.283
 6962SOL    HW121129   5.036   3.028   3.223
 6962SOL    HW221130   5.066   3.092   3.357
 6963SOL     OW21131   4.546   1.869   2.378
 6963SOL    HW121132   4.587   1.951   2.352
 6963SOL    HW221133   4.452   1.888   2.380
 6964SOL     OW21134   3.914   2.801   3.038
 6964SOL    HW121135   3.996   2.758   3.061
 6964SOL    HW221136   3.846   2.743   3.074
 6965SOL     OW21137   5.255   2.863   2.063
 6965SOL    HW121138   5.186   2.805   2.095
 6965SOL    HW221139   5.298   2.896   2.142
 6966SOL     OW21140   4.861   3.663   3.447
 6966SOL    HW121141   4.896   3.741   3.404
 6966SOL    HW221142   4.927   3.596   3.431
 6967SOL     OW21143   4.080   2.125   3.666
 6967SOL    HW121144   4.079   2.221   3.663
 6967SOL    HW221145   3.995   2.102   3.704
 6968SOL     OW21146   5.191   3.282   2.805
 6968SOL    HW121147   5.125   3.299   2.873
 6968SOL    HW221148   5.177   3.191   2.780
 6969SOL     OW21149   5.375   3.621   2.438
 6969SOL    HW121150   5.358   3.586   2.350
 6969SOL    HW221151   5.360   3.547   2.496
 6970SOL     OW21152   4.319   2.578   2.134
 6970SOL    HW121153   4.321   2.662   2.088
 6970SOL    HW221154   4.253   2.590   2.203
 6971SOL     OW21155   5.003   2.232   2.797
 6971SOL    HW121156   4.914   2.196   2.805
 6971SOL    HW221157   5.056   2.177   2.854
 6972SOL     OW21158   5.302   3.535   2.174
 6972SOL    HW121159   5.394   3.559   2.165
 6972SOL    HW221160   5.273   3.519   2.084
 6973SOL     OW21161   4.519   2.486   3.295
 6973SOL    HW121162   4.508   2.457   3.386
 6973SOL    HW221163   4.486   2.413   3.243
 6974SOL     OW21164   5.117   2.334   3.538
 6974SOL    HW121165   5.122   2.379   3.623
 6974SOL    HW221166   5.173   2.258   3.548
 6975SOL     OW21167   4.680   2.761   3.437
 6975SOL    HW121168   4.735   2.692   3.400
 6975SOL    HW221169   4.632   2.796   3.362
 6976SOL     OW21170   4.722   2.268   3.090
 6976SOL    HW121171   4.632   2.284   3.116
 6976SOL    HW221172   4.715   2.228   3.003
 6977SOL     OW21173   4.779   2.560   2.285
 6977SOL    HW121174   4.797   2.554   2.379
 6977SOL    HW221175   4.695   2.515   2.275
 6978SOL     OW21176   3.810   2.681   2.646
 6978SOL    HW121177   3.894   2.677   2.691
 6978SOL    HW221178   3.768   2.760   2.680
 6979SOL     OW21179   4.624   2.213   2.059
 6979SOL    HW121180   4.664   2.277   2.000
 6979SOL    HW221181   4.631   2.130   2.011
 6980SOL     OW21182   5.423   2.430   3.693
 6980SOL    HW121183   5.391   2.505   3.643
 6980SOL    HW221184   5.454   2.368   3.627
 6981SOL     OW21185   5.105   3.004   2.400
 6981SOL    HW121186   5.185   2.992   2.348
 6981SOL    HW221187   5.053   3.066   2.350
 6982SOL     OW21188   4.266   2.035   2.745
 6982SOL    HW121189   4.273   2.068   2.835
 6982SOL    HW221190   4.272   2.114   2.690
 6983SOL     OW21191   4.723   3.307   2.330
 6983SOL    HW121192   4.693   3.382   2.278
 6983SOL    HW221193   4.698   3.328   2.420
 6984SOL     OW21194   4.071   3.674   2.735
 6984SOL    HW121195   4.115   3.589   2.740
 6984SOL    HW221196   4.122   3.731   2.794
 6985SOL     OW21197   5.526   2.911   2.737
 6985SOL    HW121198   5.475   2.892   2.658
 6985SOL    HW221199   5.460   2.918   2.806
 6986SOL     OW21200   4.954   3.396   3.372
 6986SOL    HW121201   4.944   3.332   3.443
 6986SOL    HW221202   4.897   3.364   3.302
 6987SOL     OW21203   4.036   2.823   2.118
 6987SOL    HW121204   4.119   2.843   2.074
 6987SOL    HW221205   4.008   2.741   2.077
 6988SOL     OW21206   5.206   2.614   2.583
 6988SOL    HW121207   5.205   2.574   2.670
 6988SOL    HW221208   5.285   2.669   2.583
 6989SOL     OW21209   4.850   3.639   2.091
 6989SOL    HW121210   4.772   3.601   2.133
 6989SOL    HW221211   4.874   3.576   2.023
 6990SOL     OW21212   5.352   3.245   1.956
 6990SOL    HW121213   5.311   3.330   1.939
 6990SOL    HW221214   5.285   3.181   1.933
 6991SOL     OW21215   4.186   3.599   2.180
 6991SOL    HW121216   4.232   3.654   2.243
 6991SOL    HW221217   4.256   3.563   2.125
 6992SOL     OW21218   5.124   1.968   2.305
 6992SOL    HW121219   5.116   1.943   2.213
 6992SOL    HW221220   5.218   1.974   2.320
 6993SOL     OW21221   4.672   3.558   2.752
 6993SOL    HW121222   4.756   3.513   2.764
 6993SOL    HW221223   4.627   3.508   2.684
 6994SOL     OW21224   4.122   2.555   2.335
 6994SOL    HW121225   4.138   2.462   2.349
 6994SOL    HW221226   4.029   2.567   2.351
 6995SOL     OW21227   5.250   2.086   3.585
 6995SOL    HW121228   5.261   2.107   3.678
 6995SOL    HW221229   5.185   2.016   3.584
 6996SOL     OW21230   4.372   1.977   1.965
 6996SOL    HW121231   4.431   1.904   1.981
 6996SOL    HW221232   4.316   1.948   1.892
 6997SOL     OW21233   4.495   2.136   3.621
 6997SOL    HW121234   4.577   2.087   3.623
 6997SOL    HW221235   4.450   2.110   3.701
 6998SOL     OW21236   4.607   3.385   3.050
 6998SOL    HW121237   4.590   3.348   2.963
 6998SOL    HW221238   4.673   3.327   3.088
 6999SOL     OW21239   5.063   2.453   3.295
 6999SOL    HW121240   5.095   2.421   3.380
 6999SOL    HW221241   5.102   2.540   3.286
 7000SOL     OW21242   4.544   3.253   2.806
 7000SOL    HW121243   4.629   3.242   2.763
 7000SOL    HW221244   4.481   3.258   2.734
 7001SOL     OW21245   4.653   2.371   2.760
 7001SOL    HW121246   4.627   2.362   2.668
 7001SOL    HW221247   4.683   2.283   2.784
 7002SOL     OW21248   4.278   1.926   2.357
 7002SOL    HW121249   4.198   1.925   2.409
 7002SOL    HW221250   4.270   2.002   2.300
 7003SOL     OW21251   5.152   3.064   1.900
 7003SOL    HW121252   5.182   2.989   1.952
 7003SOL    HW221253   5.067   3.086   1.936
 7004SOL     OW21254   4.011   1.910   2.049
 7004SOL    HW121255   4.065   1.974   2.001
 7004SOL    HW221256   4.074   1.851   2.089
 7005SOL     OW21257   4.668   2.112   2.316
 7005SOL    HW121258   4.643   2.150   2.232
 7005SOL    HW221259   4.762   2.127   2.323
 7006SOL     OW21260   4.808   2.552   3.317
 7006SOL    HW121261   4.745   2.481   3.322
 7006SOL    HW221262   4.893   2.509   3.312
 7007SOL     OW21263   4.937   3.442   2.662
 7007SOL    HW121264   4.953   3.503   2.590
 7007SOL    HW221265   5.011   3.454   2.720
 7008SOL     OW21266   4.196   3.014   2.589
 7008SOL    HW121267   4.130   2.992   2.655
 7008SOL    HW221268   4.151   3.004   2.505
 7009SOL     OW21269   4.986   3.654   2.476
 7009SOL    HW121270   5.036   3.715   2.421
 7009SOL    HW221271   4.918   3.709   2.515
 7010SOL     OW21272   4.748   2.394   1.889
 7010SOL    HW121273   4.705   2.477   1.869
 7010SOL    HW221274   4.814   2.417   1.955
 7011SOL     OW21275   4.291   2.075   3.017
 7011SOL    HW121276   4.337   1.992   3.032
 7011SOL    HW221277   4.234   2.085   3.094
 7012SOL     OW21278   4.588   2.317   2.499
 7012SOL    HW121279   4.547   2.375   2.434
 7012SOL    HW221280   4.613   2.240   2.449
 7013SOL     OW21281   4.739   1.919   2.610
 7013SOL    HW121282   4.682   1.912   2.533
 7013SOL    HW221283   4.716   1.843   2.663
 7014SOL     OW21284   5.164   3.022   2.718
 7014SOL    HW121285   5.093   2.958   2.715
 7014SOL    HW221286   5.193   3.030   2.627
 7015SOL     OW21287   5.190   2.474   2.827
 7015SOL    HW121288   5.132   2.397   2.830
 7015SOL    HW221289   5.247   2.464   2.904
 7016SOL     OW21290   5.562   2.671   2.248
 7016SOL    HW121291   5.622   2.623   2.306
 7016SOL    HW221292   5.539   2.608   2.180
 7017SOL     OW21293   4.213   3.284   2.013
 7017SOL    HW121294   4.137   3.255   2.064
 7017SOL    HW221295   4.209   3.232   1.932
 7018SOL     OW21296   5.403   3.125   2.506
 7018SOL    HW121297   5.497   3.123   2.519
 7018SOL    HW221298   5.377   3.215   2.525
 7019SOL     OW21299   5.117   2.435   1.932
 7019SOL    HW121300   5.057   2.413   2.003
 7019SOL    HW221301   5.203   2.405   1.964
 7020SOL     OW21302   4.250   2.124   2.172
 7020SOL    HW121303   4.300   2.079   2.104
 7020SOL    HW221304   4.223   2.206   2.132
 7021SOL     OW21305   5.471   3.105   3.421
 7021SOL    HW121306   5.558   3.067   3.412
 7021SOL    HW221307   5.486   3.195   3.451
 7022SOL     OW21308   4.774   3.216   3.201
 7022SOL    HW121309   4.699   3.188   3.254
 7022SOL    HW221310   4.849   3.169   3.237
 7023SOL     OW21311   5.330   3.489   3.519
 7023SOL    HW121312   5.324   3.525   3.431
 7023SOL    HW221313   5.412   3.439   3.519
 7024SOL     OW21314   4.863   3.080   2.965
 7024SOL    HW121315   4.797   3.113   3.026
 7024SOL    HW221316   4.835   3.112   2.879
 7025SOL     OW21317   5.344   2.955   2.936
 7025SOL    HW121318   5.337   3.019   3.008
 7025SOL    HW221319   5.270   2.975   2.879
 7026SOL     OW21320   4.661   1.943   3.252
 7026SOL    HW121321   4.680   1.928   3.159
 7026SOL    HW221322   4.740   1.985   3.286
 7027SOL     OW21323   4.724   2.980   3.592
 7027SOL    HW121324   4.637   3.017   3.608
 7027SOL    HW221325   4.709   2.905   3.534
 7028SOL     OW21326   4.435   2.925   2.234
 7028SOL    HW121327   4.420   2.903   2.325
 7028SOL    HW221328   4.510   2.872   2.208
 7029SOL     OW21329   4.144   2.661   3.114
 7029SOL    HW121330   4.208   2.685   3.181
 7029SOL    HW221331   4.149   2.566   3.109
 7030SOL     OW21332   4.990   2.237   3.145
 7030SOL    HW121333   5.021   2.315   3.189
 7030SOL    HW221334   4.899   2.257   3.122
 7031SOL     OW21335   3.790   3.475   3.205
 7031SOL    HW121336   3.743   3.528   3.141
 7031SOL    HW221337   3.875   3.459   3.166
 7032SOL     OW21338   4.057   2.984   2.351
 7032SOL    HW121339   4.060   3.057   2.290
 7032SOL    HW221340   4.057   2.906   2.296
 7033SOL     OW21341   4.266   2.392   2.725
 7033SOL    HW121342   4.279   2.450   2.650
 7033SOL    HW221343   4.335   2.418   2.787
 7034SOL     OW21344   4.971   3.212   2.253
 7034SOL    HW121345   5.027   3.283   2.285
 7034SOL    HW221346   4.884   3.234   2.286
 7035SOL     OW21347   5.016   3.322   3.010
 7035SOL    HW121348   5.072   3.327   3.088
 7035SOL    HW221349   4.967   3.241   3.021
 7036SOL     OW21350   5.301   2.479   2.349
 7036SOL    HW121351   5.250   2.527   2.414
 7036SOL    HW221352   5.345   2.547   2.297
 7037SOL     OW21353   4.070   3.440   3.153
 7037SOL    HW121354   4.053   3.388   3.074
 7037SOL    HW221355   4.163   3.460   3.150
 7038SOL     OW21356   5.334   2.643   3.550
 7038SOL    HW121357   5.249   2.685   3.544
 7038SOL    HW221358   5.387   2.685   3.482
 7039SOL     OW21359   4.728   1.997   3.622
 7039SOL    HW121360   4.785   2.069   3.595
 7039SOL    HW221361   4.774   1.918   3.593
 7040SOL     OW21362   4.230   1.902   3.607
 7040SOL    HW121363   4.175   1.848   3.550
 7040SOL    HW221364   4.183   1.985   3.616
 7041SOL     OW21365   4.312   2.735   2.897
 7041SOL    HW121366   4.342   2.826   2.896
 7041SOL    HW221367   4.252   2.730   2.972
 7042SOL     OW21368   5.067   2.720   2.882
 7042SOL    HW121369   4.982   2.703   2.842
 7042SOL    HW221370   5.116   2.638   2.871
 7043SOL     OW21371   4.923   2.388   2.123
 7043SOL    HW121372   4.931   2.310   2.178
 7043SOL    HW221373   4.881   2.453   2.180
 7044SOL     OW21374   4.444   2.491   2.912
 7044SOL    HW121375   4.521   2.480   2.856
 7044SOL    HW221376   4.415   2.581   2.897
 7045SOL     OW21377   5.466   2.821   3.722
 7045SOL    HW121378   5.423   2.753   3.670
 7045SOL    HW221379   5.405   2.840   3.793
 7046SOL     OW21380   4.034   1.921   2.487
 7046SOL    HW121381   4.010   2.012   2.506
 7046SOL    HW221382   4.042   1.880   2.573
 7047SOL     OW21383   5.348   2.242   2.220
 7047SOL    HW121384   5.377   2.176   2.283
 7047SOL    HW221385   5.323   2.317   2.274
 7048SOL     OW21386   4.753   2.619   2.819
 7048SOL    HW121387   4.742   2.635   2.912
 7048SOL    HW221388   4.727   2.528   2.807
 7049SOL     OW21389   4.696   3.420   3.597
 7049SOL    HW121390   4.671   3.461   3.514
 7049SOL    HW221391   4.749   3.344   3.571
 7050SOL     OW21392   5.572   3.363   3.465
 7050SOL    HW121393   5.596   3.390   3.377
 7050SOL    HW221394   5.652   3.375   3.516
 7051SOL     OW21395   5.248   2.134   1.987
 7051SOL    HW121396   5.186   2.067   2.017
 7051SOL    HW221397   5.284   2.171   2.067
 7052SOL     OW21398   5.010   2.686   1.889
 7052SOL    HW121399   5.052   2.601   1.894
 7052SOL    HW221400   5.043   2.725   1.808
 7053SOL     OW21401   4.795   3.202   2.720
 7053SOL    HW121402   4.800   3.130   2.658
 7053SOL    HW221403   4.851   3.270   2.684
 7054SOL     OW21404   4.042   2.665   2.790
 7054SOL    HW121405   4.136   2.685   2.788
 7054SOL    HW221406   4.037   2.577   2.826
 7055SOL     OW21407   4.042   2.401   2.874
 7055SOL    HW121408   4.012   2.310   2.873
 7055SOL    HW221409   4.121   2.400   2.820
 7056SOL     OW21410   4.861   2.232   3.549
 7056SOL    HW121411   4.815   2.284   3.615
 7056SOL    HW221412   4.947   2.273   3.542
 7057SOL     OW21413   4.894   2.059   3.335
 7057SOL    HW121414   4.880   2.121   3.406
 7057SOL    HW221415   4.936   2.110   3.266
 7058SOL     OW21416   3.735   3.177   2.054
 7058SOL    HW121417   3.647   3.195   2.020
 7058SOL    HW221418   3.729   3.089   2.090
 7059SOL     OW21419   3.800   3.651   2.793
 7059SOL    HW121420   3.776   3.570   2.749
 7059SOL    HW221421   3.894   3.661   2.777
 7060SOL     OW21422   4.225   3.446   2.764
 7060SOL    HW121423   4.295   3.501   2.798
 7060SOL    HW221424   4.269   3.383   2.708
 7061SOL     OW21425   4.694   2.645   3.083
 7061SOL    HW121426   4.756   2.630   3.154
 7061SOL    HW221427   4.611   2.609   3.116
 7062SOL     OW21428   3.773   2.395   3.013
 7062SOL    HW121429   3.806   2.372   2.926
 7062SOL    HW221430   3.848   2.436   3.057
 7063SOL     OW21431   5.106   2.794   3.517
 7063SOL    HW121432   5.127   2.887   3.514
 7063SOL    HW221433   5.103   2.766   3.426
 7064SOL     OW21434   4.541   2.432   2.232
 7064SOL    HW121435   4.547   2.358   2.170
 7064SOL    HW221436   4.467   2.483   2.200
 7065SOL     OW21437   5.364   2.462   3.039
 7065SOL    HW121438   5.355   2.404   3.115
 7065SOL    HW221439   5.452   2.445   3.007
 7066SOL     OW21440   4.442   2.303   3.106
 7066SOL    HW121441   4.389   2.231   3.072
 7066SOL    HW221442   4.435   2.371   3.039
 7067SOL     OW21443   4.657   3.513   3.335
 7067SOL    HW121444   4.674   3.495   3.242
 7067SOL    HW221445   4.727   3.573   3.361
 7068SOL     OW21446   4.181   2.353   2.044
 7068SOL    HW121447   4.242   2.424   2.067
 7068SOL    HW221448   4.097   2.396   2.034
 7069SOL     OW21449   5.041   2.904   3.080
 7069SOL    HW121450   5.062   2.841   3.012
 7069SOL    HW221451   4.978   2.964   3.040
 7070SOL     OW21452   5.041   2.718   2.164
 7070SOL    HW121453   4.967   2.686   2.215
 7070SOL    HW221454   5.015   2.705   2.073
 7071SOL     OW21455   5.505   3.597   3.021
 7071SOL    HW121456   5.565   3.623   2.951
 7071SOL    HW221457   5.477   3.508   2.996
 7072SOL     OW21458   4.961   3.594   2.971
 7072SOL    HW121459   5.042   3.621   2.929
 7072SOL    HW221460   4.972   3.501   2.989
 7073SOL     OW21461   3.811   3.119   2.880
 7073SOL    HW121462   3.799   3.098   2.973
 7073SOL    HW221463   3.747   3.064   2.835
 7074SOL     OW21464   5.448   2.021   2.365
 7074SOL    HW121465   5.517   2.005   2.301
 7074SOL    HW221466   5.431   1.936   2.405
 7075SOL     OW21467   5.118   3.430   2.355
 7075SOL    HW121468   5.176   3.463   2.287
 7075SOL    HW221469   5.067   3.506   2.383
 7076SOL     OW21470   3.809   3.685   3.731
 7076SOL    HW121471   3.775   3.600   3.760
 7076SOL    HW221472   3.872   3.710   3.798
 7077SOL     OW21473   5.002   2.792   2.533
 7077SOL    HW121474   5.076   2.732   2.544
 7077SOL    HW221475   5.037   2.862   2.478
 7078SOL     OW21476   4.519   3.141   3.300
 7078SOL    HW121477   4.474   3.147   3.385
 7078SOL    HW221478   4.452   3.165   3.236
 7079SOL     OW21479   4.392   3.489   2.018
 7079SOL    HW121480   4.405   3.504   1.925
 7079SOL    HW221481   4.336   3.411   2.023
 7080SOL     OW21482   5.341   3.590   3.253
 7080SOL    HW121483   5.397   3.594   3.175
 7080SOL    HW221484   5.328   3.682   3.278
 7081SOL     OW21485   5.567   2.031   2.827
 7081SOL    HW121486   5.596   1.943   2.804
 7081SOL    HW221487   5.480   2.039   2.787
 7082SOL     OW21488   3.979   2.172   2.575
 7082SOL    HW121489   3.893   2.207   2.552
 7082SOL    HW221490   3.982   2.179   2.671
 7083SOL     OW21491   4.932   3.462   1.896
 7083SOL    HW121492   4.921   3.370   1.921
 7083SOL    HW221493   4.866   3.476   1.828
 7084SOL     OW21494   4.552   2.878   3.226
 7084SOL    HW121495   4.587   2.872   3.137
 7084SOL    HW221496   4.547   2.971   3.244
 7085SOL     OW21497   4.642   2.773   2.155
 7085SOL    HW121498   4.701   2.806   2.087
 7085SOL    HW221499   4.693   2.705   2.199
 7086SOL     OW21500   5.212   3.492   1.908
 7086SOL    HW121501   5.118   3.481   1.892
 7086SOL    HW221502   5.251   3.498   1.821
 7087SOL     OW21503   5.329   3.144   3.139
 7087SOL    HW121504   5.392   3.129   3.210
 7087SOL    HW221505   5.272   3.213   3.173
 7088SOL     OW21506   4.788   2.973   2.576
 7088SOL    HW121507   4.714   2.922   2.610
 7088SOL    HW221508   4.852   2.908   2.548
 7089SOL     OW21509   4.748   2.106   2.828
 7089SOL    HW121510   4.745   2.060   2.744
 7089SOL    HW221511   4.745   2.036   2.893
 7090SOL     OW21512   4.332   3.351   2.345
 7090SOL    HW121513   4.381   3.300   2.280
 7090SOL    HW221514   4.255   3.383   2.296
 7091SOL     OW21515   5.453   2.253   3.243
 7091SOL    HW121516   5.525   2.316   3.243
 7091SOL    HW221517   5.482   2.183   3.184
 7092SOL     OW21518   3.990   3.202   2.159
 7092SOL    HW121519   3.899   3.199   2.131
 7092SOL    HW221520   3.987   3.244   2.245
 7093SOL     OW21521   4.428   2.033   3.368
 7093SOL    HW121522   4.513   2.012   3.330
 7093SOL    HW221523   4.449   2.073   3.453
 7094SOL     OW21524   3.803   2.189   1.891
 7094SOL    HW121525   3.720   2.170   1.847
 7094SOL    HW221526   3.836   2.268   1.848
 7095SOL     OW21527   5.148   2.719   3.258
 7095SOL    HW121528   5.098   2.780   3.203
 7095SOL    HW221529   5.237   2.722   3.221
 7096SOL     OW21530   3.783   2.017   2.160
 7096SOL    HW121531   3.769   2.093   2.104
 7096SOL    HW221532   3.869   1.983   2.134
 7097SOL     OW21533   4.902   3.194   1.980
 7097SOL    HW121534   4.811   3.165   1.980
 7097SOL    HW221535   4.927   3.195   2.072
 7098SOL     OW21536   4.350   2.701   3.284
 7098SOL    HW121537   4.410   2.774   3.270
 7098SOL    HW221538   4.407   2.625   3.297
 7099SOL     OW21539   5.204   3.649   2.846
 7099SOL    HW121540   5.226   3.717   2.783
 7099SOL    HW221541   5.288   3.620   2.880
 7100SOL     OW21542   4.491   2.409   3.551
 7100SOL    HW121543   4.534   2.467   3.614
 7100SOL    HW221544   4.497   2.322   3.590
 7101SOL     OW21545   5.197   3.056   3.489
 7101SOL    HW121546   5.186   3.070   3.583
 7101SOL    HW221547   5.289   3.075   3.472
 7102SOL     OW21548   5.386   2.740   3.116
 7102SOL    HW121549   5.384   2.655   3.073
 7102SOL    HW221550   5.376   2.804   3.045
 7103SOL     OW21551   4.939   2.180   2.319
 7103SOL    HW121552   5.002   2.108   2.313
 7103SOL    HW221553   4.969   2.231   2.395
 7104SOL     OW21554   4.308   2.594   2.539
 7104SOL    HW121555   4.349   2.679   2.524
 7104SOL    HW221556   4.245   2.585   2.468
 7105SOL     OW21557   5.479   2.225   3.516
 7105SOL    HW121558   5.466   2.242   3.423
 7105SOL    HW221559   5.406   2.169   3.541
 7106SOL     OW21560   5.472   2.794   3.372
 7106SOL    HW121561   5.463   2.889   3.384
 7106SOL    HW221562   5.454   2.780   3.279
 7107SOL     OW21563   4.590   3.227   1.908
 7107SOL    HW121564   4.550   3.257   1.990
 7107SOL    HW221565   4.605   3.307   1.858
 7108SOL     OW21566   4.403   3.657   2.835
 7108SOL    HW121567   4.368   3.740   2.801
 7108SOL    HW221568   4.488   3.648   2.792
 7109SOL     OW21569   4.594   2.831   2.714
 7109SOL    HW121570   4.644   2.758   2.750
 7109SOL    HW221571   4.557   2.874   2.791
 7110SOL     OW21572   4.800   2.850   1.951
 7110SOL    HW121573   4.779   2.902   1.874
 7110SOL    HW221574   4.874   2.796   1.924
 7111SOL     OW21575   5.570   3.415   2.702
 7111SOL    HW121576   5.490   3.403   2.650
 7111SOL    HW221577   5.561   3.351   2.773
 7112SOL     OW21578   3.815   3.089   2.527
 7112SOL    HW121579   3.828   3.040   2.609
 7112SOL    HW221580   3.882   3.054   2.468
 7113SOL     OW21581   5.533   2.042   3.098
 7113SOL    HW121582   5.541   1.947   3.110
 7113SOL    HW221583   5.545   2.055   3.004
 7114SOL     OW21584   4.152   2.293   2.388
 7114SOL    HW121585   4.183   2.225   2.329
 7114SOL    HW221586   4.101   2.247   2.454
 7115SOL     OW21587   5.420   3.347   2.951
 7115SOL    HW121588   5.341   3.327   2.901
 7115SOL    HW221589   5.426   3.277   3.016
 7116SOL     OW21590   4.554   3.446   2.534
 7116SOL    HW121591   4.536   3.513   2.468
 7116SOL    HW221592   4.480   3.385   2.528
 7117SOL     OW21593   5.153   2.092   2.977
 7117SOL    HW121594   5.174   2.009   3.020
 7117SOL    HW221595   5.104   2.141   3.044
 7118SOL     OW21596   4.734   1.876   2.991
 7118SOL    HW121597   4.681   1.811   2.944
 7118SOL    HW221598   4.822   1.837   2.993
 7119SOL     OW21599   4.497   3.196   2.187
 7119SOL    HW121600   4.471   3.104   2.193
 7119SOL    HW221601   4.581   3.200   2.233
 7120SOL     OW21602   4.360   3.419   3.153
 7120SOL    HW121603   4.388   3.434   3.244
 7120SOL    HW221604   4.442   3.416   3.103
 7121SOL     OW21605   5.083   1.912   2.037
 7121SOL    HW121606   5.118   1.842   1.982
 7121SOL    HW221607   4.993   1.885   2.056
 7122SOL     OW21608   5.019   2.326   2.539
 7122SOL    HW121609   4.967   2.407   2.542
 7122SOL    HW221610   5.015   2.291   2.628
 7123SOL     OW21611   5.308   2.055   2.746
 7123SOL    HW121612   5.253   2.081   2.819
 7123SOL    HW221613   5.308   2.132   2.688
 7124SOL     OW21614   3.766   2.926   2.173
 7124SOL    HW121615   3.859   2.918   2.153
 7124SOL    HW221616   3.738   2.837   2.193
 7125SOL     OW21617   4.612   3.524   2.200
 7125SOL    HW121618   4.537   3.509   2.142
 7125SOL    HW221619   4.585   3.597   2.255
 7126SOL     OW21620   3.948   2.147   4.716
 7126SOL    HW121621   3.976   2.112   4.800
 7126SOL    HW221622   3.859   2.114   4.705
 7127SOL     OW21623   3.715   2.234   4.359
 7127SOL    HW121624   3.639   2.267   4.407
 7127SOL    HW221625   3.682   2.155   4.314
 7128SOL     OW21626   4.292   3.162   4.910
 7128SOL    HW121627   4.207   3.169   4.868
 7128SOL    HW221628   4.310   3.250   4.943
 7129SOL     OW21629   5.297   3.377   4.433
 7129SOL    HW121630   5.254   3.354   4.515
 7129SOL    HW221631   5.227   3.381   4.369
 7130SOL     OW21632   4.874   2.551   4.439
 7130SOL    HW121633   4.908   2.635   4.410
 7130SOL    HW221634   4.821   2.571   4.516
 7131SOL     OW21635   5.504   2.458   3.948
 7131SOL    HW121636   5.476   2.453   3.857
 7131SOL    HW221637   5.464   2.383   3.990
 7132SOL     OW21638   4.465   2.998   4.773
 7132SOL    HW121639   4.400   3.037   4.832
 7132SOL    HW221640   4.506   3.073   4.730
 7133SOL     OW21641   4.601   2.621   5.550
 7133SOL    HW121642   4.589   2.690   5.615
 7133SOL    HW221643   4.622   2.667   5.469
 7134SOL     OW21644   4.410   2.851   4.389
 7134SOL    HW121645   4.479   2.846   4.454
 7134SOL    HW221646   4.344   2.909   4.427
 7135SOL     OW21647   4.438   3.011   5.544
 7135SOL    HW121648   4.486   3.087   5.576
 7135SOL    HW221649   4.358   3.046   5.505
 7136SOL     OW21650   4.057   3.276   4.791
 7136SOL    HW121651   3.981   3.237   4.747
 7136SOL    HW221652   4.099   3.329   4.724
 7137SOL     OW21653   5.183   3.366   5.086
 7137SOL    HW121654   5.237   3.444   5.097
 7137SOL    HW221655   5.114   3.376   5.152
 7138SOL     OW21656   4.177   2.252   5.196
 7138SOL    HW121657   4.252   2.194   5.209
 7138SOL    HW221658   4.101   2.198   5.220
 7139SOL     OW21659   5.327   2.303   4.470
 7139SOL    HW121660   5.254   2.320   4.411
 7139SOL    HW221661   5.325   2.376   4.532
 7140SOL     OW21662   3.951   3.567   4.188
 7140SOL    HW121663   3.968   3.641   4.246
 7140SOL    HW221664   4.023   3.569   4.125
 7141SOL     OW21665   4.861   3.205   5.419
 7141SOL    HW121666   4.903   3.198   5.504
 7141SOL    HW221667   4.809   3.125   5.411
 7142SOL     OW21668   3.954   3.296   4.269
 7142SOL    HW121669   3.954   3.388   4.240
 7142SOL    HW221670   3.873   3.288   4.319
 7143SOL     OW21671   3.990   2.953   4.605
 7143SOL    HW121672   3.987   2.865   4.643
 7143SOL    HW221673   3.935   3.006   4.662
 7144SOL     OW21674   4.323   3.655   5.149
 7144SOL    HW121675   4.243   3.637   5.199
 7144SOL    HW221676   4.349   3.743   5.178
 7145SOL     OW21677   5.319   1.991   5.187
 7145SOL    HW121678   5.346   2.071   5.142
 7145SOL    HW221679   5.297   2.019   5.276
 7146SOL     OW21680   3.854   2.498   4.300
 7146SOL    HW121681   3.798   2.422   4.312
 7146SOL    HW221682   3.827   2.560   4.368
 7147SOL     OW21683   5.568   3.614   4.054
 7147SOL    HW121684   5.638   3.590   4.114
 7147SOL    HW221685   5.584   3.706   4.034
 7148SOL     OW21686   3.716   3.450   3.843
 7148SOL    HW121687   3.757   3.366   3.864
 7148SOL    HW221688   3.716   3.498   3.926
 7149SOL     OW21689   5.415   2.783   4.371
 7149SOL    HW121690   5.497   2.737   4.349
 7149SOL    HW221691   5.394   2.832   4.292
 7150SOL     OW21692   5.375   2.966   4.153
 7150SOL    HW121693   5.462   2.964   4.112
 7150SOL    HW221694   5.383   3.029   4.224
 7151SOL     OW21695   3.849   2.607   5.307
 7151SOL    HW121696   3.939   2.639   5.311
 7151SOL    HW221697   3.795   2.686   5.310
 7152SOL     OW21698   4.344   3.257   4.463
 7152SOL    HW121699   4.301   3.172   4.472
 7152SOL    HW221700   4.326   3.284   4.373
 7153SOL     OW21701   5.008   3.097   5.143
 7153SOL    HW121702   5.039   3.028   5.084
 7153SOL    HW221703   5.067   3.092   5.218
 7154SOL     OW21704   4.547   1.868   4.237
 7154SOL    HW121705   4.585   1.953   4.214
 7154SOL    HW221706   4.453   1.885   4.243
 7155SOL     OW21707   3.912   2.822   5.006
 7155SOL    HW121708   3.998   2.783   4.990
 7155SOL    HW221709   3.853   2.775   4.947
 7156SOL     OW21710   5.258   2.861   3.924
 7156SOL    HW121711   5.196   2.795   3.956
 7156SOL    HW221712   5.300   2.895   4.002
 7157SOL     OW21713   4.906   3.677   5.351
 7157SOL    HW121714   4.912   3.739   5.278
 7157SOL    HW221715   4.926   3.592   5.312
 7158SOL     OW21716   4.070   2.111   5.557
 7158SOL    HW121717   4.109   2.195   5.582
 7158SOL    HW221718   3.977   2.122   5.575
 7159SOL     OW21719   5.192   3.282   4.670
 7159SOL    HW121720   5.126   3.298   4.737
 7159SOL    HW221721   5.178   3.190   4.645
 7160SOL     OW21722   5.375   3.620   4.300
 7160SOL    HW121723   5.358   3.585   4.213
 7160SOL    HW221724   5.359   3.547   4.360
 7161SOL     OW21725   5.005   2.229   4.659
 7161SOL    HW121726   4.916   2.195   4.667
 7161SOL    HW221727   5.057   2.174   4.718
 7162SOL     OW21728   5.302   3.536   4.035
 7162SOL    HW121729   5.395   3.560   4.028
 7162SOL    HW221730   5.275   3.518   3.945
 7163SOL     OW21731   4.515   2.480   5.168
 7163SOL    HW121732   4.490   2.454   5.257
 7163SOL    HW221733   4.482   2.409   5.113
 7164SOL     OW21734   5.116   2.336   5.402
 7164SOL    HW121735   5.120   2.380   5.487
 7164SOL    HW221736   5.173   2.259   5.413
 7165SOL     OW21737   4.673   2.746   5.312
 7165SOL    HW121738   4.728   2.679   5.273
 7165SOL    HW221739   4.624   2.783   5.238
 7166SOL     OW21740   4.720   2.270   4.956
 7166SOL    HW121741   4.630   2.286   4.984
 7166SOL    HW221742   4.711   2.226   4.871
 7167SOL     OW21743   3.809   2.685   4.499
 7167SOL    HW121744   3.890   2.677   4.549
 7167SOL    HW221745   3.766   2.762   4.536
 7168SOL     OW21746   3.848   3.736   5.309
 7168SOL    HW121747   3.853   3.713   5.401
 7168SOL    HW221748   3.764   3.700   5.280
 7169SOL     OW21749   4.647   2.169   3.906
 7169SOL    HW121750   4.673   2.249   3.859
 7169SOL    HW221751   4.686   2.098   3.855
 7170SOL     OW21752   5.426   2.430   5.555
 7170SOL    HW121753   5.392   2.505   5.505
 7170SOL    HW221754   5.454   2.368   5.488
 7171SOL     OW21755   5.105   3.000   4.255
 7171SOL    HW121756   5.189   2.997   4.209
 7171SOL    HW221757   5.055   3.068   4.210
 7172SOL     OW21758   4.276   2.037   4.624
 7172SOL    HW121759   4.278   2.066   4.715
 7172SOL    HW221760   4.275   2.118   4.573
 7173SOL     OW21761   4.717   3.307   4.187
 7173SOL    HW121762   4.693   3.386   4.139
 7173SOL    HW221763   4.694   3.325   4.278
 7174SOL     OW21764   4.077   3.678   4.597
 7174SOL    HW121765   4.122   3.594   4.602
 7174SOL    HW221766   4.146   3.743   4.614
 7175SOL     OW21767   5.525   2.912   4.598
 7175SOL    HW121768   5.473   2.892   4.521
 7175SOL    HW221769   5.461   2.919   4.669
 7176SOL     OW21770   4.950   3.403   5.238
 7176SOL    HW121771   4.939   3.331   5.300
 7176SOL    HW221772   4.880   3.391   5.174
 7177SOL     OW21773   5.205   2.615   4.442
 7177SOL    HW121774   5.202   2.574   4.528
 7177SOL    HW221775   5.284   2.670   4.444
 7178SOL     OW21776   4.196   3.131   5.462
 7178SOL    HW121777   4.169   3.136   5.370
 7178SOL    HW221778   4.113   3.127   5.510
 7179SOL     OW21779   4.851   3.641   3.951
 7179SOL    HW121780   4.773   3.606   3.994
 7179SOL    HW221781   4.873   3.576   3.884
 7180SOL     OW21782   3.926   2.131   5.228
 7180SOL    HW121783   3.847   2.183   5.237
 7180SOL    HW221784   3.904   2.046   5.266
 7181SOL     OW21785   5.351   3.243   3.816
 7181SOL    HW121786   5.310   3.328   3.801
 7181SOL    HW221787   5.282   3.180   3.794
 7182SOL     OW21788   4.189   3.601   4.043
 7182SOL    HW121789   4.235   3.657   4.106
 7182SOL    HW221790   4.260   3.560   3.993
 7183SOL     OW21791   5.124   1.969   4.167
 7183SOL    HW121792   5.117   1.943   4.075
 7183SOL    HW221793   5.218   1.974   4.184
 7184SOL     OW21794   3.979   3.652   4.951
 7184SOL    HW121795   4.029   3.580   4.990
 7184SOL    HW221796   3.971   3.627   4.859
 7185SOL     OW21797   4.664   3.563   4.620
 7185SOL    HW121798   4.743   3.515   4.644
 7185SOL    HW221799   4.625   3.512   4.549
 7186SOL     OW21800   4.120   2.539   4.247
 7186SOL    HW121801   4.143   2.446   4.247
 7186SOL    HW221802   4.026   2.540   4.264
 7187SOL     OW21803   5.250   2.086   5.447
 7187SOL    HW121804   5.261   2.106   5.540
 7187SOL    HW221805   5.182   2.019   5.445
 7188SOL     OW21806   4.365   1.985   3.828
 7188SOL    HW121807   4.430   1.919   3.850
 7188SOL    HW221808   4.319   1.949   3.752
 7189SOL     OW21809   4.486   2.140   5.479
 7189SOL    HW121810   4.568   2.090   5.476
 7189SOL    HW221811   4.441   2.107   5.557
 7190SOL     OW21812   4.599   3.385   4.919
 7190SOL    HW121813   4.581   3.346   4.833
 7190SOL    HW221814   4.668   3.330   4.956
 7191SOL     OW21815   5.062   2.452   5.158
 7191SOL    HW121816   5.093   2.420   5.243
 7191SOL    HW221817   5.099   2.539   5.149
 7192SOL     OW21818   4.545   3.248   4.673
 7192SOL    HW121819   4.629   3.238   4.630
 7192SOL    HW221820   4.482   3.259   4.601
 7193SOL     OW21821   4.655   2.370   4.632
 7193SOL    HW121822   4.632   2.359   4.540
 7193SOL    HW221823   4.687   2.283   4.659
 7194SOL     OW21824   4.278   1.919   4.220
 7194SOL    HW121825   4.199   1.921   4.274
 7194SOL    HW221826   4.270   1.996   4.163
 7195SOL     OW21827   5.151   3.060   3.762
 7195SOL    HW121828   5.184   2.986   3.813
 7195SOL    HW221829   5.065   3.078   3.799
 7196SOL     OW21830   4.023   1.911   3.930
 7196SOL    HW121831   4.085   1.960   3.877
 7196SOL    HW221832   4.074   1.839   3.967
 7197SOL     OW21833   4.664   2.117   4.177
 7197SOL    HW121834   4.648   2.137   4.084
 7197SOL    HW221835   4.758   2.131   4.188
 7198SOL     OW21836   4.805   2.548   5.181
 7198SOL    HW121837   4.741   2.477   5.186
 7198SOL    HW221838   4.889   2.503   5.176
 7199SOL     OW21839   4.943   3.434   4.518
 7199SOL    HW121840   4.956   3.500   4.450
 7199SOL    HW221841   5.011   3.452   4.583
 7200SOL     OW21842   4.202   3.021   4.453
 7200SOL    HW121843   4.132   2.998   4.515
 7200SOL    HW221844   4.160   3.012   4.367
 7201SOL     OW21845   4.986   3.653   4.337
 7201SOL    HW121846   5.035   3.716   4.284
 7201SOL    HW221847   4.917   3.705   4.378
 7202SOL     OW21848   4.758   2.382   3.760
 7202SOL    HW121849   4.726   2.468   3.731
 7202SOL    HW221850   4.818   2.402   3.832
 7203SOL     OW21851   3.809   2.416   5.116
 7203SOL    HW121852   3.901   2.416   5.090
 7203SOL    HW221853   3.803   2.485   5.182
 7204SOL     OW21854   4.281   2.089   4.897
 7204SOL    HW121855   4.323   2.019   4.947
 7204SOL    HW221856   4.189   2.086   4.924
 7205SOL     OW21857   4.589   2.309   4.376
 7205SOL    HW121858   4.529   2.368   4.331
 7205SOL    HW221859   4.609   2.242   4.312
 7206SOL     OW21860   4.744   1.915   4.469
 7206SOL    HW121861   4.683   1.910   4.396
 7206SOL    HW221862   4.720   1.842   4.526
 7207SOL     OW21863   5.165   3.021   4.583
 7207SOL    HW121864   5.094   2.957   4.585
 7207SOL    HW221865   5.190   3.027   4.491
 7208SOL     OW21866   5.191   2.473   4.686
 7208SOL    HW121867   5.131   2.398   4.691
 7208SOL    HW221868   5.247   2.464   4.764
 7209SOL     OW21869   5.562   2.671   4.109
 7209SOL    HW121870   5.621   2.623   4.168
 7209SOL    HW221871   5.539   2.607   4.041
 7210SOL     OW21872   5.402   3.126   4.365
 7210SOL    HW121873   5.497   3.124   4.381
 7210SOL    HW221874   5.376   3.216   4.387
 7211SOL     OW21875   5.118   2.432   3.792
 7211SOL    HW121876   5.059   2.408   3.863
 7211SOL    HW221877   5.204   2.403   3.823
 7212SOL     OW21878   4.257   2.121   4.039
 7212SOL    HW121879   4.296   2.078   3.963
 7212SOL    HW221880   4.272   2.215   4.024
 7213SOL     OW21881   5.470   3.105   5.281
 7213SOL    HW121882   5.558   3.067   5.273
 7213SOL    HW221883   5.486   3.194   5.312
 7214SOL     OW21884   4.777   3.213   5.053
 7214SOL    HW121885   4.702   3.183   5.103
 7214SOL    HW221886   4.852   3.173   5.096
 7215SOL     OW21887   5.333   3.490   5.383
 7215SOL    HW121888   5.325   3.525   5.294
 7215SOL    HW221889   5.414   3.440   5.382
 7216SOL     OW21890   4.859   3.072   4.824
 7216SOL    HW121891   4.801   3.112   4.889
 7216SOL    HW221892   4.831   3.109   4.741
 7217SOL     OW21893   5.346   2.957   4.800
 7217SOL    HW121894   5.339   3.020   4.872
 7217SOL    HW221895   5.271   2.977   4.744
 7218SOL     OW21896   4.643   1.953   5.115
 7218SOL    HW121897   4.666   1.936   5.023
 7218SOL    HW221898   4.722   1.993   5.152
 7219SOL     OW21899   4.708   2.978   5.447
 7219SOL    HW121900   4.617   2.994   5.472
 7219SOL    HW221901   4.704   2.898   5.394
 7220SOL     OW21902   4.417   2.970   4.140
 7220SOL    HW121903   4.416   2.927   4.226
 7220SOL    HW221904   4.440   2.900   4.079
 7221SOL     OW21905   4.147   2.681   4.975
 7221SOL    HW121906   4.214   2.691   5.043
 7221SOL    HW221907   4.112   2.593   4.989
 7222SOL     OW21908   4.987   2.236   5.006
 7222SOL    HW121909   5.019   2.314   5.052
 7222SOL    HW221910   4.897   2.257   4.984
 7223SOL     OW21911   3.800   3.436   5.083
 7223SOL    HW121912   3.771   3.507   5.025
 7223SOL    HW221913   3.895   3.434   5.074
 7224SOL     OW21914   4.273   2.387   4.585
 7224SOL    HW121915   4.294   2.444   4.510
 7224SOL    HW221916   4.336   2.412   4.652
 7225SOL     OW21917   4.971   3.213   4.118
 7225SOL    HW121918   5.025   3.285   4.150
 7225SOL    HW221919   4.883   3.234   4.149
 7226SOL     OW21920   5.016   3.324   4.874
 7226SOL    HW121921   5.072   3.331   4.951
 7226SOL    HW221922   4.960   3.248   4.891
 7227SOL     OW21923   5.298   2.481   4.208
 7227SOL    HW121924   5.250   2.526   4.277
 7227SOL    HW221925   5.345   2.551   4.162
 7228SOL     OW21926   4.069   3.394   5.032
 7228SOL    HW121927   4.059   3.347   4.949
 7228SOL    HW221928   4.164   3.405   5.042
 7229SOL     OW21929   4.143   2.608   5.329
 7229SOL    HW121930   4.206   2.650   5.271
 7229SOL    HW221931   4.182   2.522   5.348
 7230SOL     OW21932   5.335   2.643   5.412
 7230SOL    HW121933   5.249   2.684   5.407
 7230SOL    HW221934   5.387   2.685   5.344
 7231SOL     OW21935   4.720   1.997   5.477
 7231SOL    HW121936   4.778   2.070   5.457
 7231SOL    HW221937   4.769   1.919   5.452
 7232SOL     OW21938   4.221   1.896   5.475
 7232SOL    HW121939   4.172   1.845   5.411
 7232SOL    HW221940   4.166   1.973   5.491
 7233SOL     OW21941   4.306   2.739   4.755
 7233SOL    HW121942   4.344   2.826   4.761
 7233SOL    HW221943   4.253   2.730   4.833
 7234SOL     OW21944   5.067   2.720   4.740
 7234SOL    HW121945   4.979   2.700   4.708
 7234SOL    HW221946   5.116   2.638   4.730
 7235SOL     OW21947   4.929   2.390   3.991
 7235SOL    HW121948   4.924   2.312   4.045
 7235SOL    HW221949   4.951   2.460   4.053
 7236SOL     OW21950   4.018   2.059   4.970
 7236SOL    HW121951   3.982   2.090   5.053
 7236SOL    HW221952   4.001   1.965   4.971
 7237SOL     OW21953   3.774   3.174   4.996
 7237SOL    HW121954   3.803   3.118   5.068
 7237SOL    HW221955   3.776   3.263   5.033
 7238SOL     OW21956   4.440   2.490   4.776
 7238SOL    HW121957   4.520   2.477   4.724
 7238SOL    HW221958   4.414   2.580   4.757
 7239SOL     OW21959   5.465   2.822   5.584
 7239SOL    HW121960   5.422   2.753   5.533
 7239SOL    HW221961   5.404   2.840   5.655
 7240SOL     OW21962   4.035   1.924   4.349
 7240SOL    HW121963   4.007   2.013   4.369
 7240SOL    HW221964   4.042   1.881   4.434
 7241SOL     OW21965   5.348   2.243   4.081
 7241SOL    HW121966   5.376   2.177   4.145
 7241SOL    HW221967   5.322   2.319   4.135
 7242SOL     OW21968   4.753   2.620   4.687
 7242SOL    HW121969   4.741   2.636   4.781
 7242SOL    HW221970   4.727   2.528   4.675
 7243SOL     OW21971   4.705   3.429   5.447
 7243SOL    HW121972   4.689   3.472   5.363
 7243SOL    HW221973   4.748   3.346   5.424
 7244SOL     OW21974   5.573   3.362   5.327
 7244SOL    HW121975   5.597   3.390   5.239
 7244SOL    HW221976   5.653   3.375   5.379
 7245SOL     OW21977   4.075   2.780   5.534
 7245SOL    HW121978   4.155   2.798   5.584
 7245SOL    HW221979   4.102   2.717   5.467
 7246SOL     OW21980   5.248   2.135   3.849
 7246SOL    HW121981   5.187   2.067   3.879
 7246SOL    HW221982   5.284   2.171   3.930
 7247SOL     OW21983   5.013   2.683   3.750
 7247SOL    HW121984   5.053   2.597   3.753
 7247SOL    HW221985   5.043   2.721   3.667
 7248SOL     OW21986   4.795   3.201   4.580
 7248SOL    HW121987   4.801   3.130   4.517
 7248SOL    HW221988   4.852   3.270   4.545
 7249SOL     OW21989   4.033   2.673   4.667
 7249SOL    HW121990   4.126   2.693   4.670
 7249SOL    HW221991   4.027   2.582   4.697
 7250SOL     OW21992   4.049   2.394   4.735
 7250SOL    HW121993   4.013   2.306   4.723
 7250SOL    HW221994   4.126   2.396   4.679
 7251SOL     OW21995   4.858   2.234   5.411
 7251SOL    HW121996   4.810   2.287   5.473
 7251SOL    HW221997   4.945   2.274   5.406
 7252SOL     OW21998   4.884   2.059   5.196
 7252SOL    HW121999   4.873   2.121   5.268
 7252SOL    HW222000   4.928   2.109   5.127
 7253SOL     OW22001   3.637   3.153   3.980
 7253SOL    HW122002   3.570   3.189   3.920
 7253SOL    HW222003   3.714   3.142   3.925
 7254SOL     OW22004   3.814   3.642   4.668
 7254SOL    HW122005   3.784   3.565   4.620
 7254SOL    HW222006   3.903   3.657   4.635
 7255SOL     OW22007   4.214   3.438   4.629
 7255SOL    HW122008   4.283   3.500   4.653
 7255SOL    HW222009   4.258   3.375   4.572
 7256SOL     OW22010   4.692   2.648   4.950
 7256SOL    HW122011   4.754   2.630   5.020
 7256SOL    HW222012   4.610   2.609   4.980
 7257SOL     OW22013   3.762   2.414   4.841
 7257SOL    HW122014   3.843   2.407   4.791
 7257SOL    HW222015   3.790   2.413   4.933
 7258SOL     OW22016   3.914   2.386   5.457
 7258SOL    HW122017   3.969   2.342   5.393
 7258SOL    HW222018   3.879   2.463   5.411
 7259SOL     OW22019   5.106   2.793   5.380
 7259SOL    HW122020   5.127   2.886   5.376
 7259SOL    HW222021   5.102   2.766   5.289
 7260SOL     OW22022   5.363   2.463   4.900
 7260SOL    HW122023   5.354   2.405   4.976
 7260SOL    HW222024   5.452   2.445   4.868
 7261SOL     OW22025   3.960   3.410   5.446
 7261SOL    HW122026   3.939   3.473   5.514
 7261SOL    HW222027   3.969   3.326   5.493
 7262SOL     OW22028   4.441   2.305   4.975
 7262SOL    HW122029   4.381   2.234   4.952
 7262SOL    HW222030   4.430   2.369   4.905
 7263SOL     OW22031   4.646   3.539   5.195
 7263SOL    HW122032   4.620   3.500   5.112
 7263SOL    HW222033   4.641   3.634   5.180
 7264SOL     OW22034   3.863   3.006   5.199
 7264SOL    HW122035   3.866   2.960   5.283
 7264SOL    HW222036   3.882   2.938   5.134
 7265SOL     OW22037   5.043   2.903   4.941
 7265SOL    HW122038   5.063   2.840   4.872
 7265SOL    HW222039   4.977   2.961   4.902
 7266SOL     OW22040   5.045   2.704   4.023
 7266SOL    HW122041   4.973   2.753   4.063
 7266SOL    HW222042   5.021   2.697   3.930
 7267SOL     OW22043   5.504   3.597   4.882
 7267SOL    HW122044   5.564   3.623   4.812
 7267SOL    HW222045   5.477   3.508   4.858
 7268SOL     OW22046   4.963   3.593   4.824
 7268SOL    HW122047   5.046   3.619   4.785
 7268SOL    HW222048   4.974   3.501   4.848
 7269SOL     OW22049   3.818   3.125   4.734
 7269SOL    HW122050   3.798   3.141   4.827
 7269SOL    HW222051   3.744   3.071   4.704
 7270SOL     OW22052   4.403   3.535   5.465
 7270SOL    HW122053   4.344   3.609   5.456
 7270SOL    HW222054   4.474   3.553   5.404
 7271SOL     OW22055   5.446   2.021   4.227
 7271SOL    HW122056   5.516   2.004   4.163
 7271SOL    HW222057   5.430   1.936   4.267
 7272SOL     OW22058   5.117   3.431   4.216
 7272SOL    HW122059   5.175   3.465   4.148
 7272SOL    HW222060   5.067   3.506   4.245
 7273SOL     OW22061   3.865   3.658   5.567
 7273SOL    HW122062   3.816   3.591   5.613
 7273SOL    HW222063   3.912   3.705   5.636
 7274SOL     OW22064   4.999   2.790   4.387
 7274SOL    HW122065   5.072   2.730   4.401
 7274SOL    HW222066   5.037   2.862   4.336
 7275SOL     OW22067   4.526   3.140   5.146
 7275SOL    HW122068   4.500   3.182   5.228
 7275SOL    HW222069   4.454   3.158   5.086
 7276SOL     OW22070   4.384   3.465   3.894
 7276SOL    HW122071   4.378   3.469   3.799
 7276SOL    HW222072   4.362   3.375   3.917
 7277SOL     OW22073   5.342   3.591   5.116
 7277SOL    HW122074   5.396   3.595   5.037
 7277SOL    HW222075   5.328   3.682   5.140
 7278SOL     OW22076   5.567   2.031   4.689
 7278SOL    HW122077   5.596   1.943   4.665
 7278SOL    HW222078   5.480   2.039   4.650
 7279SOL     OW22079   3.974   2.175   4.436
 7279SOL    HW122080   3.887   2.205   4.412
 7279SOL    HW222081   3.974   2.172   4.531
 7280SOL     OW22082   4.931   3.463   3.755
 7280SOL    HW122083   4.923   3.374   3.787
 7280SOL    HW222084   4.859   3.473   3.693
 7281SOL     OW22085   4.547   2.870   5.101
 7281SOL    HW122086   4.592   2.863   5.017
 7281SOL    HW222087   4.543   2.964   5.118
 7282SOL     OW22088   5.212   3.492   3.770
 7282SOL    HW122089   5.118   3.481   3.753
 7282SOL    HW222090   5.251   3.497   3.682
 7283SOL     OW22091   4.091   3.168   5.216
 7283SOL    HW122092   4.078   3.244   5.160
 7283SOL    HW222093   4.014   3.113   5.202
 7284SOL     OW22094   5.331   3.147   5.004
 7284SOL    HW122095   5.389   3.129   5.078
 7284SOL    HW222096   5.271   3.214   5.036
 7285SOL     OW22097   4.789   2.971   4.435
 7285SOL    HW122098   4.718   2.923   4.476
 7285SOL    HW222099   4.854   2.904   4.412
 7286SOL     OW22100   4.751   2.105   4.692
 7286SOL    HW122101   4.747   2.060   4.608
 7286SOL    HW222102   4.745   2.035   4.757
 7287SOL     OW22103   4.322   3.351   4.210
 7287SOL    HW122104   4.364   3.300   4.141
 7287SOL    HW222105   4.237   3.375   4.173
 7288SOL     OW22106   5.452   2.254   5.104
 7288SOL    HW122107   5.525   2.316   5.104
 7288SOL    HW222108   5.482   2.183   5.046
 7289SOL     OW22109   3.839   2.898   5.451
 7289SOL    HW122110   3.762   2.870   5.501
 7289SOL    HW222111   3.913   2.853   5.492
 7290SOL     OW22112   4.401   2.055   5.223
 7290SOL    HW122113   4.486   2.033   5.184
 7290SOL    HW222114   4.423   2.088   5.310
 7291SOL     OW22115   5.148   2.719   5.120
 7291SOL    HW122116   5.098   2.780   5.065
 7291SOL    HW222117   5.236   2.721   5.084
 7292SOL     OW22118   3.789   2.005   4.034
 7292SOL    HW122119   3.798   2.100   4.032
 7292SOL    HW222120   3.871   1.972   3.997
 7293SOL     OW22121   4.905   3.201   3.846
 7293SOL    HW122122   4.825   3.149   3.847
 7293SOL    HW222123   4.934   3.203   3.937
 7294SOL     OW22124   4.345   2.693   5.159
 7294SOL    HW122125   4.402   2.769   5.146
 7294SOL    HW222126   4.404   2.619   5.166
 7295SOL     OW22127   5.208   3.649   4.708
 7295SOL    HW122128   5.230   3.718   4.645
 7295SOL    HW222129   5.292   3.621   4.743
 7296SOL     OW22130   4.443   2.420   5.421
 7296SOL    HW122131   4.488   2.478   5.483
 7296SOL    HW222132   4.459   2.332   5.456
 7297SOL     OW22133   5.197   3.055   5.351
 7297SOL    HW122134   5.185   3.070   5.445
 7297SOL    HW222135   5.289   3.075   5.335
 7298SOL     OW22136   4.092   3.603   5.291
 7298SOL    HW122137   4.010   3.650   5.275
 7298SOL    HW222138   4.066   3.521   5.331
 7299SOL     OW22139   5.387   2.741   4.978
 7299SOL    HW122140   5.383   2.656   4.935
 7299SOL    HW222141   5.377   2.805   4.908
 7300SOL     OW22142   4.938   2.181   4.182
 7300SOL    HW122143   5.000   2.108   4.176
 7300SOL    HW222144   4.967   2.230   4.259
 7301SOL     OW22145   4.343   2.579   4.396
 7301SOL    HW122146   4.371   2.671   4.392
 7301SOL    HW222147   4.265   2.575   4.341
 7302SOL     OW22148   5.479   2.225   5.377
 7302SOL    HW122149   5.465   2.242   5.283
 7302SOL    HW222150   5.406   2.169   5.402
 7303SOL     OW22151   5.473   2.795   5.234
 7303SOL    HW122152   5.461   2.889   5.247
 7303SOL    HW222153   5.454   2.781   5.141
 7304SOL     OW22154   4.588   3.218   3.755
 7304SOL    HW122155   4.555   3.239   3.842
 7304SOL    HW222156   4.612   3.303   3.717
 7305SOL     OW22157   4.388   3.644   4.660
 7305SOL    HW122158   4.369   3.736   4.643
 7305SOL    HW222159   4.484   3.638   4.655
 7306SOL     OW22160   4.601   2.835   4.586
 7306SOL    HW122161   4.650   2.762   4.622
 7306SOL    HW222162   4.561   2.878   4.661
 7307SOL     OW22163   4.846   2.888   3.822
 7307SOL    HW122164   4.805   2.920   3.742
 7307SOL    HW222165   4.900   2.814   3.794
 7308SOL     OW22166   5.569   3.414   4.565
 7308SOL    HW122167   5.489   3.403   4.513
 7308SOL    HW222168   5.558   3.354   4.638
 7309SOL     OW22169   3.950   3.159   5.576
 7309SOL    HW122170   3.892   3.092   5.541
 7309SOL    HW222171   3.922   3.172   5.666
 7310SOL     OW22172   3.792   3.096   4.400
 7310SOL    HW122173   3.804   3.039   4.476
 7310SOL    HW222174   3.879   3.100   4.359
 7311SOL     OW22175   4.409   3.272   5.355
 7311SOL    HW122176   4.332   3.229   5.390
 7311SOL    HW222177   4.407   3.360   5.393
 7312SOL     OW22178   5.535   2.043   4.959
 7312SOL    HW122179   5.541   1.948   4.972
 7312SOL    HW222180   5.547   2.055   4.865
 7313SOL     OW22181   4.157   2.275   4.253
 7313SOL    HW122182   4.172   2.198   4.197
 7313SOL    HW222183   4.099   2.243   4.322
 7314SOL     OW22184   5.422   3.346   4.813
 7314SOL    HW122185   5.342   3.327   4.764
 7314SOL    HW222186   5.426   3.278   4.880
 7315SOL     OW22187   4.061   2.423   5.017
 7315SOL    HW122188   4.114   2.364   5.071
 7315SOL    HW222189   4.077   2.393   4.927
 7316SOL     OW22190   4.559   3.443   4.396
 7316SOL    HW122191   4.533   3.512   4.336
 7316SOL    HW222192   4.483   3.385   4.400
 7317SOL     OW22193   5.153   2.092   4.842
 7317SOL    HW122194   5.173   2.009   4.885
 7317SOL    HW222195   5.103   2.141   4.907
 7318SOL     OW22196   4.733   1.878   4.858
 7318SOL    HW122197   4.678   1.812   4.815
 7318SOL    HW222198   4.820   1.839   4.859
 7319SOL     OW22199   4.492   3.211   4.030
 7319SOL    HW122200   4.455   3.127   4.058
 7319SOL    HW222201   4.571   3.221   4.084
 7320SOL     OW22202   4.344   3.419   5.011
 7320SOL    HW122203   4.343   3.501   5.060
 7320SOL    HW222204   4.432   3.412   4.975
 7321SOL     OW22205   5.084   1.912   3.898
 7321SOL    HW122206   5.120   1.839   3.847
 7321SOL    HW222207   4.994   1.886   3.916
 7322SOL     OW22208   5.023   2.322   4.401
 7322SOL    HW122209   4.972   2.403   4.407
 7322SOL    HW222210   5.019   2.285   4.489
 7323SOL     OW22211   5.308   2.055   4.609
 7323SOL    HW122212   5.253   2.081   4.683
 7323SOL    HW222213   5.308   2.131   4.551
 7324SOL     OW22214   4.614   3.528   4.060
 7324SOL    HW122215   4.536   3.510   4.008
 7324SOL    HW222216   4.588   3.599   4.118
 7325SOL     OW22217   3.943   2.486   5.718
 7325SOL    HW122218   3.855   2.480   5.755
 7325SOL    HW222219   3.933   2.463   5.626
 7326SOL     OW22220   3.946   2.152   6.580
 7326SOL    HW122221   3.979   2.112   6.660
 7326SOL    HW222222   3.858   2.116   6.569
 7327SOL     OW22223   3.720   2.249   6.226
 7327SOL    HW122224   3.640   2.277   6.270
 7327SOL    HW222225   3.694   2.170   6.177
 7328SOL     OW22226   4.287   3.146   6.755
 7328SOL    HW122227   4.202   3.167   6.715
 7328SOL    HW222228   4.309   3.223   6.807
 7329SOL     OW22229   5.297   3.377   6.295
 7329SOL    HW122230   5.251   3.355   6.376
 7329SOL    HW222231   5.228   3.381   6.229
 7330SOL     OW22232   4.856   2.560   6.281
 7330SOL    HW122233   4.904   2.643   6.270
 7330SOL    HW222234   4.807   2.571   6.362
 7331SOL     OW22235   5.507   2.458   5.810
 7331SOL    HW122236   5.478   2.453   5.719
 7331SOL    HW222237   5.465   2.383   5.852
 7332SOL     OW22238   4.488   3.003   6.637
 7332SOL    HW122239   4.416   3.031   6.693
 7332SOL    HW222240   4.514   3.082   6.590
 7333SOL     OW22241   4.410   2.858   6.229
 7333SOL    HW122242   4.475   2.851   6.298
 7333SOL    HW222243   4.341   2.913   6.267
 7334SOL     OW22244   4.056   3.271   6.653
 7334SOL    HW122245   3.977   3.239   6.611
 7334SOL    HW222246   4.096   3.330   6.589
 7335SOL     OW22247   5.326   2.305   6.332
 7335SOL    HW122248   5.255   2.320   6.271
 7335SOL    HW222249   5.319   2.376   6.396
 7336SOL     OW22250   3.943   3.579   6.053
 7336SOL    HW122251   3.964   3.653   6.110
 7336SOL    HW222252   4.018   3.571   5.995
 7337SOL     OW22253   3.958   3.307   6.123
 7337SOL    HW122254   3.937   3.401   6.126
 7337SOL    HW222255   3.901   3.268   6.189
 7338SOL     OW22256   3.993   2.955   6.480
 7338SOL    HW122257   3.988   2.867   6.518
 7338SOL    HW222258   3.937   3.008   6.536
 7339SOL     OW22259   4.341   3.668   6.979
 7339SOL    HW122260   4.256   3.644   0.016
 7339SOL    HW222261   4.360   3.755   0.014
 7340SOL     OW22262   4.300   2.847   5.727
 7340SOL    HW122263   4.350   2.891   5.658
 7340SOL    HW222264   4.340   2.879   5.809
 7341SOL     OW22265   3.843   2.519   6.148
 7341SOL    HW122266   3.812   2.431   6.169
 7341SOL    HW222267   3.835   2.568   6.229
 7342SOL     OW22268   5.567   3.614   5.915
 7342SOL    HW122269   5.637   3.589   5.976
 7342SOL    HW222270   5.584   3.706   5.896
 7343SOL     OW22271   3.764   3.451   5.705
 7343SOL    HW122272   3.746   3.359   5.725
 7343SOL    HW222273   3.738   3.498   5.783
 7344SOL     OW22274   5.415   2.781   6.230
 7344SOL    HW122275   5.495   2.736   6.205
 7344SOL    HW222276   5.391   2.833   6.153
 7345SOL     OW22277   5.375   2.965   6.016
 7345SOL    HW122278   5.462   2.965   5.975
 7345SOL    HW222279   5.382   3.029   6.086
 7346SOL     OW22280   4.341   3.254   6.321
 7346SOL    HW122281   4.295   3.170   6.330
 7346SOL    HW222282   4.323   3.281   6.231
 7347SOL     OW22283   4.546   1.867   6.100
 7347SOL    HW122284   4.586   1.950   6.076
 7347SOL    HW222285   4.452   1.886   6.105
 7348SOL     OW22286   3.915   2.843   6.848
 7348SOL    HW122287   3.991   2.789   6.829
 7348SOL    HW222288   3.840   2.787   6.825
 7349SOL     OW22289   5.255   2.863   5.786
 7349SOL    HW122290   5.186   2.806   5.819
 7349SOL    HW222291   5.299   2.896   5.865
 7350SOL     OW22292   5.177   3.286   6.528
 7350SOL    HW122293   5.121   3.295   6.605
 7350SOL    HW222294   5.169   3.193   6.505
 7351SOL     OW22295   5.374   3.622   6.161
 7351SOL    HW122296   5.356   3.584   6.075
 7351SOL    HW222297   5.360   3.549   6.222
 7352SOL     OW22298   4.318   2.576   5.857
 7352SOL    HW122299   4.320   2.661   5.813
 7352SOL    HW222300   4.252   2.587   5.927
 7353SOL     OW22301   5.000   2.228   6.518
 7353SOL    HW122302   4.911   2.194   6.528
 7353SOL    HW222303   5.052   2.177   6.579
 7354SOL     OW22304   5.302   3.535   5.897
 7354SOL    HW122305   5.394   3.559   5.889
 7354SOL    HW222306   5.273   3.519   5.807
 7355SOL     OW22307   4.524   2.462   0.058
 7355SOL    HW122308   4.457   2.507   0.110
 7355SOL    HW222309   4.474   2.414   6.992
 7356SOL     OW22310   4.720   2.257   6.800
 7356SOL    HW122311   4.643   2.300   6.835
 7356SOL    HW222312   4.689   2.209   6.724
 7357SOL     OW22313   4.779   2.560   6.010
 7357SOL    HW122314   4.798   2.554   6.103
 7357SOL    HW222315   4.695   2.515   5.999
 7358SOL     OW22316   3.814   2.685   6.364
 7358SOL    HW122317   3.894   2.678   6.416
 7358SOL    HW222318   3.768   2.761   6.400
 7359SOL     OW22319   3.879   3.713   0.139
 7359SOL    HW122320   3.834   3.642   0.184
 7359SOL    HW222321   3.827   3.729   0.060
 7360SOL     OW22322   4.624   2.213   5.782
 7360SOL    HW122323   4.664   2.276   5.723
 7360SOL    HW222324   4.632   2.129   5.737
 7361SOL     OW22325   5.106   3.004   6.125
 7361SOL    HW122326   5.186   2.994   6.073
 7361SOL    HW222327   5.053   3.066   6.075
 7362SOL     OW22328   4.277   2.036   6.485
 7362SOL    HW122329   4.281   2.069   6.575
 7362SOL    HW222330   4.275   2.115   6.431
 7363SOL     OW22331   4.722   3.307   6.053
 7363SOL    HW122332   4.693   3.383   6.002
 7363SOL    HW222333   4.696   3.327   6.143
 7364SOL     OW22334   4.077   3.677   6.453
 7364SOL    HW122335   4.118   3.591   6.465
 7364SOL    HW222336   4.146   3.740   6.477
 7365SOL     OW22337   5.528   2.911   6.455
 7365SOL    HW122338   5.477   2.891   6.377
 7365SOL    HW222339   5.464   2.912   6.526
 7366SOL     OW22340   4.036   2.823   5.842
 7366SOL    HW122341   4.119   2.842   5.798
 7366SOL    HW222342   4.008   2.739   5.806
 7367SOL     OW22343   5.205   2.613   6.303
 7367SOL    HW122344   5.202   2.572   6.389
 7367SOL    HW222345   5.284   2.668   6.305
 7368SOL     OW22346   4.850   3.641   5.813
 7368SOL    HW122347   4.773   3.603   5.856
 7368SOL    HW222348   4.874   3.576   5.746
 7369SOL     OW22349   5.352   3.244   5.677
 7369SOL    HW122350   5.311   3.329   5.663
 7369SOL    HW222351   5.284   3.180   5.655
 7370SOL     OW22352   4.186   3.599   5.904
 7370SOL    HW122353   4.232   3.654   5.968
 7370SOL    HW222354   4.256   3.563   5.849
 7371SOL     OW22355   5.123   1.969   6.029
 7371SOL    HW122356   5.117   1.943   5.937
 7371SOL    HW222357   5.218   1.973   6.046
 7372SOL     OW22358   3.998   3.659   6.817
 7372SOL    HW122359   4.045   3.601   6.878
 7372SOL    HW222360   3.941   3.600   6.768
 7373SOL     OW22361   4.665   3.560   6.479
 7373SOL    HW122362   4.747   3.512   6.497
 7373SOL    HW222363   4.624   3.510   6.409
 7374SOL     OW22364   4.121   2.555   6.058
 7374SOL    HW122365   4.137   2.462   6.072
 7374SOL    HW222366   4.028   2.567   6.075
 7375SOL     OW22367   4.371   1.979   5.687
 7375SOL    HW122368   4.427   1.904   5.708
 7375SOL    HW222369   4.317   1.948   5.615
 7376SOL     OW22370   4.594   3.381   6.764
 7376SOL    HW122371   4.577   3.348   6.676
 7376SOL    HW222372   4.630   3.307   6.812
 7377SOL     OW22373   4.543   3.249   6.524
 7377SOL    HW122374   4.627   3.240   6.480
 7377SOL    HW222375   4.479   3.256   6.453
 7378SOL     OW22376   4.655   2.373   6.484
 7378SOL    HW122377   4.629   2.363   6.392
 7378SOL    HW222378   4.687   2.286   6.509
 7379SOL     OW22379   4.278   1.925   6.080
 7379SOL    HW122380   4.199   1.925   6.134
 7379SOL    HW222381   4.269   2.002   6.024
 7380SOL     OW22382   5.151   3.063   5.624
 7380SOL    HW122383   5.181   2.989   5.676
 7380SOL    HW222384   5.066   3.086   5.661
 7381SOL     OW22385   4.013   1.910   5.772
 7381SOL    HW122386   4.071   1.976   5.734
 7381SOL    HW222387   4.072   1.848   5.815
 7382SOL     OW22388   4.667   2.112   6.040
 7382SOL    HW122389   4.643   2.150   5.956
 7382SOL    HW222390   4.761   2.127   6.048
 7383SOL     OW22391   4.939   3.437   6.382
 7383SOL    HW122392   4.955   3.503   6.314
 7383SOL    HW222393   5.017   3.441   6.438
 7384SOL     OW22394   4.197   3.016   6.312
 7384SOL    HW122395   4.132   2.996   6.379
 7384SOL    HW222396   4.151   3.004   6.229
 7385SOL     OW22397   4.986   3.653   6.200
 7385SOL    HW122398   5.035   3.716   6.146
 7385SOL    HW222399   4.916   3.705   6.239
 7386SOL     OW22400   4.749   2.394   5.613
 7386SOL    HW122401   4.705   2.477   5.594
 7386SOL    HW222402   4.813   2.415   5.681
 7387SOL     OW22403   4.288   2.090   6.757
 7387SOL    HW122404   4.327   2.010   6.794
 7387SOL    HW222405   4.196   2.086   6.785
 7388SOL     OW22406   4.590   2.320   6.223
 7388SOL    HW122407   4.547   2.376   6.158
 7388SOL    HW222408   4.613   2.240   6.175
 7389SOL     OW22409   4.745   1.912   6.326
 7389SOL    HW122410   4.683   1.907   6.253
 7389SOL    HW222411   4.720   1.840   6.384
 7390SOL     OW22412   5.159   3.020   6.441
 7390SOL    HW122413   5.094   2.949   6.442
 7390SOL    HW222414   5.182   3.031   6.349
 7391SOL     OW22415   5.190   2.471   6.545
 7391SOL    HW122416   5.131   2.397   6.556
 7391SOL    HW222417   5.249   2.467   6.621
 7392SOL     OW22418   5.563   2.671   5.971
 7392SOL    HW122419   5.622   2.623   6.030
 7392SOL    HW222420   5.541   2.607   5.903
 7393SOL     OW22421   4.213   3.285   5.738
 7393SOL    HW122422   4.137   3.256   5.788
 7393SOL    HW222423   4.210   3.232   5.658
 7394SOL     OW22424   5.404   3.127   6.226
 7394SOL    HW122425   5.498   3.125   6.242
 7394SOL    HW222426   5.377   3.216   6.250
 7395SOL     OW22427   5.117   2.435   5.657
 7395SOL    HW122428   5.055   2.413   5.727
 7395SOL    HW222429   5.202   2.406   5.690
 7396SOL     OW22430   4.249   2.124   5.895
 7396SOL    HW122431   4.301   2.081   5.827
 7396SOL    HW222432   4.221   2.206   5.855
 7397SOL     OW22433   5.485   3.034   0.164
 7397SOL    HW122434   5.578   3.031   0.140
 7397SOL    HW222435   5.457   3.123   0.140
 7398SOL     OW22436   4.839   3.100   6.693
 7398SOL    HW122437   4.760   3.052   6.714
 7398SOL    HW222438   4.828   3.127   6.602
 7399SOL     OW22439   5.339   2.944   6.648
 7399SOL    HW122440   5.337   3.014   6.712
 7399SOL    HW222441   5.267   2.963   6.588
 7400SOL     OW22442   4.435   2.926   5.957
 7400SOL    HW122443   4.420   2.904   6.049
 7400SOL    HW222444   4.510   2.871   5.932
 7401SOL     OW22445   4.149   2.678   6.849
 7401SOL    HW122446   4.194   2.701   6.930
 7401SOL    HW222447   4.115   2.590   6.864
 7402SOL     OW22448   4.989   2.253   6.855
 7402SOL    HW122449   5.014   2.326   6.912
 7402SOL    HW222450   4.898   2.272   6.832
 7403SOL     OW22451   3.817   3.434   6.865
 7403SOL    HW122452   3.758   3.469   6.933
 7403SOL    HW222453   3.899   3.417   6.912
 7404SOL     OW22454   4.058   2.983   6.076
 7404SOL    HW122455   4.059   3.057   6.015
 7404SOL    HW222456   4.056   2.906   6.019
 7405SOL     OW22457   4.270   2.392   6.444
 7405SOL    HW122458   4.284   2.451   6.370
 7405SOL    HW222459   4.339   2.416   6.506
 7406SOL     OW22460   4.971   3.213   5.977
 7406SOL    HW122461   5.026   3.283   6.010
 7406SOL    HW222462   4.883   3.234   6.010
 7407SOL     OW22463   5.010   3.308   6.749
 7407SOL    HW122464   5.046   3.285   6.835
 7407SOL    HW222465   4.946   3.239   6.731
 7408SOL     OW22466   5.300   2.482   6.069
 7408SOL    HW122467   5.251   2.525   6.139
 7408SOL    HW222468   5.344   2.553   6.023
 7409SOL     OW22469   4.084   3.360   6.907
 7409SOL    HW122470   4.061   3.321   6.823
 7409SOL    HW222471   4.175   3.387   6.896
 7410SOL     OW22472   4.308   2.733   6.625
 7410SOL    HW122473   4.336   2.825   6.624
 7410SOL    HW222474   4.253   2.725   6.702
 7411SOL     OW22475   5.062   2.722   6.589
 7411SOL    HW122476   4.976   2.696   6.557
 7411SOL    HW222477   5.115   2.642   6.584
 7412SOL     OW22478   4.922   2.388   5.846
 7412SOL    HW122479   4.931   2.310   5.901
 7412SOL    HW222480   4.880   2.453   5.903
 7413SOL     OW22481   4.029   2.063   6.831
 7413SOL    HW122482   3.977   2.092   6.906
 7413SOL    HW222483   4.016   1.968   6.828
 7414SOL     OW22484   3.748   3.167   6.867
 7414SOL    HW122485   3.803   3.125   6.934
 7414SOL    HW222486   3.777   3.258   6.865
 7415SOL     OW22487   4.443   2.487   6.637
 7415SOL    HW122488   4.521   2.476   6.582
 7415SOL    HW222489   4.416   2.577   6.621
 7416SOL     OW22490   4.035   1.924   6.208
 7416SOL    HW122491   4.009   2.013   6.230
 7416SOL    HW222492   4.042   1.880   6.293
 7417SOL     OW22493   5.349   2.244   5.943
 7417SOL    HW122494   5.376   2.178   6.006
 7417SOL    HW222495   5.323   2.319   5.996
 7418SOL     OW22496   4.752   2.622   6.551
 7418SOL    HW122497   4.744   2.636   6.645
 7418SOL    HW222498   4.727   2.530   6.539
 7419SOL     OW22499   5.250   2.134   5.711
 7419SOL    HW122500   5.187   2.067   5.741
 7419SOL    HW222501   5.285   2.171   5.791
 7420SOL     OW22502   5.009   2.686   5.613
 7420SOL    HW122503   5.051   2.600   5.618
 7420SOL    HW222504   5.042   2.724   5.532
 7421SOL     OW22505   4.796   3.202   6.440
 7421SOL    HW122506   4.802   3.130   6.376
 7421SOL    HW222507   4.851   3.271   6.403
 7422SOL     OW22508   4.035   2.670   6.531
 7422SOL    HW122509   4.128   2.690   6.525
 7422SOL    HW222510   4.032   2.579   6.561
 7423SOL     OW22511   4.056   2.394   6.604
 7423SOL    HW122512   4.018   2.307   6.589
 7423SOL    HW222513   4.132   2.397   6.546
 7424SOL     OW22514   4.867   2.105   0.059
 7424SOL    HW122515   4.944   2.112   0.115
 7424SOL    HW222516   4.894   2.143   6.976
 7425SOL     OW22517   3.733   3.177   5.778
 7425SOL    HW122518   3.645   3.194   5.743
 7425SOL    HW222519   3.728   3.088   5.814
 7426SOL     OW22520   3.811   3.651   6.526
 7426SOL    HW122521   3.783   3.571   6.481
 7426SOL    HW222522   3.903   3.661   6.501
 7427SOL     OW22523   4.213   3.438   6.491
 7427SOL    HW122524   4.282   3.499   6.515
 7427SOL    HW222525   4.257   3.374   6.434
 7428SOL     OW22526   4.705   2.647   6.822
 7428SOL    HW122527   4.775   2.613   6.879
 7428SOL    HW222528   4.624   2.620   6.866
 7429SOL     OW22529   3.778   2.422   6.714
 7429SOL    HW122530   3.831   2.389   6.641
 7429SOL    HW222531   3.841   2.449   6.780
 7430SOL     OW22532   4.542   2.432   5.954
 7430SOL    HW122533   4.547   2.358   5.894
 7430SOL    HW222534   4.467   2.483   5.923
 7431SOL     OW22535   5.372   2.473   6.751
 7431SOL    HW122536   5.359   2.417   6.828
 7431SOL    HW222537   5.464   2.460   6.727
 7432SOL     OW22538   4.412   2.323   6.851
 7432SOL    HW122539   4.370   2.243   6.820
 7432SOL    HW222540   4.415   2.380   6.773
 7433SOL     OW22541   4.671   3.523   6.996
 7433SOL    HW122542   4.640   3.509   6.906
 7433SOL    HW222543   4.644   3.613   0.017
 7434SOL     OW22544   4.181   2.353   5.762
 7434SOL    HW122545   4.241   2.422   5.788
 7434SOL    HW222546   4.096   2.396   5.756
 7435SOL     OW22547   3.882   3.010   0.058
 7435SOL    HW122548   3.936   2.966   0.124
 7435SOL    HW222549   3.891   2.956   6.980
 7436SOL     OW22550   5.002   2.863   6.817
 7436SOL    HW122551   5.035   2.818   6.739
 7436SOL    HW222552   4.984   2.952   6.787
 7437SOL     OW22553   5.042   2.719   5.888
 7437SOL    HW122554   4.969   2.687   5.941
 7437SOL    HW222555   5.013   2.705   5.797
 7438SOL     OW22556   5.473   3.627   6.718
 7438SOL    HW122557   5.549   3.642   6.662
 7438SOL    HW222558   5.460   3.532   6.717
 7439SOL     OW22559   4.971   3.585   6.700
 7439SOL    HW122560   5.053   3.610   6.656
 7439SOL    HW222561   4.981   3.492   6.718
 7440SOL     OW22562   3.808   3.124   6.600
 7440SOL    HW122563   3.783   3.133   6.692
 7440SOL    HW222564   3.741   3.067   6.562
 7441SOL     OW22565   5.447   2.022   6.089
 7441SOL    HW122566   5.517   2.004   6.026
 7441SOL    HW222567   5.430   1.937   6.130
 7442SOL     OW22568   5.117   3.430   6.079
 7442SOL    HW122569   5.175   3.464   6.010
 7442SOL    HW222570   5.066   3.506   6.108
 7443SOL     OW22571   5.001   2.791   6.256
 7443SOL    HW122572   5.075   2.731   6.266
 7443SOL    HW222573   5.036   2.862   6.202
 7444SOL     OW22574   4.392   3.490   5.742
 7444SOL    HW122575   4.405   3.504   5.649
 7444SOL    HW222576   4.337   3.411   5.747
 7445SOL     OW22577   5.566   2.037   6.560
 7445SOL    HW122578   5.596   1.950   6.537
 7445SOL    HW222579   5.478   2.044   6.522
 7446SOL     OW22580   3.978   2.175   6.299
 7446SOL    HW122581   3.892   2.209   6.276
 7446SOL    HW222582   3.978   2.171   6.395
 7447SOL     OW22583   4.932   3.462   5.620
 7447SOL    HW122584   4.921   3.370   5.646
 7447SOL    HW222585   4.865   3.475   5.552
 7448SOL     OW22586   4.496   2.888   6.956
 7448SOL    HW122587   4.549   2.856   6.883
 7448SOL    HW222588   4.543   2.964   6.989
 7449SOL     OW22589   4.641   2.772   5.877
 7449SOL    HW122590   4.701   2.806   5.810
 7449SOL    HW222591   4.691   2.705   5.923
 7450SOL     OW22592   5.212   3.492   5.632
 7450SOL    HW122593   5.118   3.481   5.616
 7450SOL    HW222594   5.250   3.498   5.545
 7451SOL     OW22595   5.334   3.148   6.828
 7451SOL    HW122596   5.419   3.144   6.872
 7451SOL    HW222597   5.271   3.125   6.896
 7452SOL     OW22598   4.787   2.972   6.297
 7452SOL    HW122599   4.714   2.921   6.333
 7452SOL    HW222600   4.852   2.906   6.272
 7453SOL     OW22601   4.745   2.103   6.541
 7453SOL    HW122602   4.745   2.055   6.458
 7453SOL    HW222603   4.745   2.034   6.608
 7454SOL     OW22604   4.330   3.350   6.065
 7454SOL    HW122605   4.380   3.300   6.000
 7454SOL    HW222606   4.253   3.380   6.018
 7455SOL     OW22607   5.419   2.287   6.948
 7455SOL    HW122608   5.482   2.288   0.021
 7455SOL    HW222609   5.422   2.198   6.915
 7456SOL     OW22610   3.987   3.204   5.880
 7456SOL    HW122611   3.895   3.199   5.854
 7456SOL    HW222612   3.986   3.245   5.966
 7457SOL     OW22613   4.402   2.047   0.085
 7457SOL    HW122614   4.490   2.011   0.077
 7457SOL    HW222615   4.415   2.134   0.123
 7458SOL     OW22616   3.807   2.187   5.616
 7458SOL    HW122617   3.719   2.170   5.582
 7458SOL    HW222618   3.835   2.266   5.570
 7459SOL     OW22619   3.784   2.014   5.885
 7459SOL    HW122620   3.772   2.094   5.833
 7459SOL    HW222621   3.869   1.981   5.859
 7460SOL     OW22622   4.902   3.195   5.705
 7460SOL    HW122623   4.812   3.163   5.706
 7460SOL    HW222624   4.928   3.197   5.796
 7461SOL     OW22625   5.215   3.646   6.579
 7461SOL    HW122626   5.231   3.712   6.511
 7461SOL    HW222627   5.300   3.633   6.619
 7462SOL     OW22628   5.220   3.161   0.283
 7462SOL    HW122629   5.131   3.163   0.318
 7462SOL    HW222630   5.235   3.069   0.261
 7463SOL     OW22631   4.115   3.592   0.091
 7463SOL    HW122632   4.037   3.642   0.116
 7463SOL    HW222633   4.099   3.504   0.124
 7464SOL     OW22634   5.428   2.742   6.831
 7464SOL    HW122635   5.395   2.658   6.801
 7464SOL    HW222636   5.392   2.806   6.769
 7465SOL     OW22637   4.940   2.181   6.042
 7465SOL    HW122638   5.001   2.108   6.037
 7465SOL    HW222639   4.969   2.232   6.118
 7466SOL     OW22640   4.310   2.595   6.259
 7466SOL    HW122641   4.350   2.681   6.245
 7466SOL    HW222642   4.245   2.587   6.189
 7467SOL     OW22643   5.490   2.759   0.102
 7467SOL    HW122644   5.484   2.852   0.122
 7467SOL    HW222645   5.470   2.753   0.009
 7468SOL     OW22646   4.587   3.226   5.631
 7468SOL    HW122647   4.551   3.251   5.716
 7468SOL    HW222648   4.602   3.309   5.586
 7469SOL     OW22649   4.390   3.644   6.526
 7469SOL    HW122650   4.371   3.735   6.505
 7469SOL    HW222651   4.485   3.637   6.519
 7470SOL     OW22652   4.594   2.833   6.440
 7470SOL    HW122653   4.642   2.760   6.479
 7470SOL    HW222654   4.557   2.879   6.515
 7471SOL     OW22655   4.801   2.851   5.675
 7471SOL    HW122656   4.780   2.903   5.597
 7471SOL    HW222657   4.874   2.796   5.648
 7472SOL     OW22658   5.572   3.416   6.426
 7472SOL    HW122659   5.491   3.406   6.377
 7472SOL    HW222660   5.558   3.367   6.507
 7473SOL     OW22661   3.816   3.090   6.251
 7473SOL    HW122662   3.822   3.044   6.335
 7473SOL    HW222663   3.884   3.049   6.197
 7474SOL     OW22664   5.533   2.032   6.837
 7474SOL    HW122665   5.507   1.940   6.830
 7474SOL    HW222666   5.548   2.060   6.746
 7475SOL     OW22667   4.151   2.294   6.111
 7475SOL    HW122668   4.182   2.223   6.055
 7475SOL    HW222669   4.100   2.250   6.179
 7476SOL     OW22670   5.407   3.363   6.666
 7476SOL    HW122671   5.330   3.347   6.613
 7476SOL    HW222672   5.407   3.293   6.731
 7477SOL     OW22673   4.039   2.419   6.878
 7477SOL    HW122674   4.096   2.355   6.921
 7477SOL    HW222675   4.053   2.404   6.785
 7478SOL     OW22676   4.557   3.440   6.258
 7478SOL    HW122677   4.533   3.508   6.194
 7478SOL    HW222678   4.481   3.382   6.260
 7479SOL     OW22679   5.156   2.101   6.703
 7479SOL    HW122680   5.182   2.024   6.753
 7479SOL    HW222681   5.106   2.154   6.765
 7480SOL     OW22682   4.741   1.878   6.702
 7480SOL    HW122683   4.689   1.809   6.661
 7480SOL    HW222684   4.827   1.837   6.717
 7481SOL     OW22685   4.500   3.196   5.907
 7481SOL    HW122686   4.473   3.104   5.916
 7481SOL    HW222687   4.580   3.203   5.958
 7482SOL     OW22688   4.343   3.424   6.859
 7482SOL    HW122689   4.344   3.516   6.886
 7482SOL    HW222690   4.428   3.409   6.818
 7483SOL     OW22691   5.084   1.913   5.760
 7483SOL    HW122692   5.118   1.841   5.707
 7483SOL    HW222693   4.994   1.886   5.780
 7484SOL     OW22694   5.021   2.326   6.262
 7484SOL    HW122695   4.968   2.406   6.266
 7484SOL    HW222696   5.014   2.289   6.350
 7485SOL     OW22697   5.308   2.058   6.472
 7485SOL    HW122698   5.252   2.083   6.545
 7485SOL    HW222699   5.308   2.133   6.413
 7486SOL     OW22700   3.766   2.925   5.894
 7486SOL    HW122701   3.860   2.917   5.876
 7486SOL    HW222702   3.738   2.837   5.916
 7487SOL     OW22703   4.614   3.525   5.921
 7487SOL    HW122704   4.538   3.509   5.866
 7487SOL    HW222705   4.587   3.596   5.979
 7488SOL     OW22706   3.943   4.370   0.139
 7488SOL    HW122707   3.853   4.350   0.163
 7488SOL    HW222708   3.949   4.347   0.046
 7489SOL     OW22709   3.948   4.009   0.993
 7489SOL    HW122710   3.976   3.973   1.077
 7489SOL    HW222711   3.859   3.976   0.981
 7490SOL     OW22712   3.722   4.114   0.644
 7490SOL    HW122713   3.644   4.146   0.689
 7490SOL    HW222714   3.695   4.033   0.602
 7491SOL     OW22715   4.293   5.023   1.186
 7491SOL    HW122716   4.208   5.029   1.143
 7491SOL    HW222717   4.310   5.112   1.218
 7492SOL     OW22718   5.297   5.240   0.710
 7492SOL    HW122719   5.254   5.214   0.792
 7492SOL    HW222720   5.228   5.239   0.645
 7493SOL     OW22721   4.856   4.422   0.695
 7493SOL    HW122722   4.905   4.503   0.684
 7493SOL    HW222723   4.808   4.433   0.777
 7494SOL     OW22724   5.516   4.301   0.199
 7494SOL    HW122725   5.451   4.349   0.147
 7494SOL    HW222726   5.464   4.244   0.256
 7495SOL     OW22727   4.467   4.860   1.049
 7495SOL    HW122728   4.402   4.899   1.108
 7495SOL    HW222729   4.507   4.935   1.005
 7496SOL     OW22730   4.601   4.483   1.825
 7496SOL    HW122731   4.588   4.553   1.890
 7496SOL    HW222732   4.622   4.529   1.744
 7497SOL     OW22733   4.409   4.716   0.645
 7497SOL    HW122734   4.476   4.712   0.714
 7497SOL    HW222735   4.342   4.773   0.682
 7498SOL     OW22736   4.438   4.873   1.820
 7498SOL    HW122737   4.486   4.950   1.852
 7498SOL    HW222738   4.359   4.909   1.781
 7499SOL     OW22739   4.056   5.139   1.067
 7499SOL    HW122740   3.981   5.099   1.022
 7499SOL    HW222741   4.099   5.190   0.999
 7500SOL     OW22742   5.182   5.227   1.363
 7500SOL    HW122743   5.237   5.305   1.372
 7500SOL    HW222744   5.114   5.238   1.429
 7501SOL     OW22745   4.176   4.115   1.475
 7501SOL    HW122746   4.251   4.057   1.485
 7501SOL    HW222747   4.100   4.059   1.496
 7502SOL     OW22748   5.329   4.169   0.749
 7502SOL    HW122749   5.260   4.189   0.686
 7502SOL    HW222750   5.330   4.244   0.809
 7503SOL     OW22751   3.940   5.449   0.470
 7503SOL    HW122752   3.963   5.524   0.524
 7503SOL    HW222753   4.023   5.422   0.430
 7504SOL     OW22754   4.861   5.067   1.695
 7504SOL    HW122755   4.903   5.059   1.781
 7504SOL    HW222756   4.810   4.987   1.687
 7505SOL     OW22757   3.934   5.171   0.528
 7505SOL    HW122758   3.920   5.264   0.544
 7505SOL    HW222759   3.888   5.127   0.600
 7506SOL     OW22760   3.990   4.815   0.889
 7506SOL    HW122761   3.987   4.727   0.926
 7506SOL    HW222762   3.933   4.867   0.945
 7507SOL     OW22763   4.322   5.518   1.425
 7507SOL    HW122764   4.242   5.499   1.474
 7507SOL    HW222765   4.348   5.605   1.454
 7508SOL     OW22766   4.305   4.688   0.148
 7508SOL    HW122767   4.363   4.710   0.075
 7508SOL    HW222768   4.342   4.736   0.223
 7509SOL     OW22769   5.319   3.852   1.463
 7509SOL    HW122770   5.346   3.932   1.417
 7509SOL    HW222771   5.297   3.882   1.552
 7510SOL     OW22772   3.845   4.373   0.558
 7510SOL    HW122773   3.814   4.287   0.583
 7510SOL    HW222774   3.837   4.426   0.637
 7511SOL     OW22775   5.559   5.485   0.348
 7511SOL    HW122776   5.631   5.459   0.406
 7511SOL    HW222777   5.567   5.580   0.340
 7512SOL     OW22778   3.736   5.313   0.137
 7512SOL    HW122779   3.669   5.245   0.124
 7512SOL    HW222780   3.719   5.348   0.224
 7513SOL     OW22781   5.415   4.637   0.649
 7513SOL    HW122782   5.494   4.591   0.621
 7513SOL    HW222783   5.392   4.693   0.575
 7514SOL     OW22784   5.377   4.818   0.444
 7514SOL    HW122785   5.442   4.839   0.377
 7514SOL    HW222786   5.388   4.886   0.511
 7515SOL     OW22787   3.849   4.469   1.584
 7515SOL    HW122788   3.939   4.501   1.586
 7515SOL    HW222789   3.795   4.548   1.585
 7516SOL     OW22790   4.342   5.113   0.741
 7516SOL    HW122791   4.297   5.029   0.749
 7516SOL    HW222792   4.330   5.137   0.649
 7517SOL     OW22793   5.008   4.959   1.420
 7517SOL    HW122794   5.037   4.890   1.360
 7517SOL    HW222795   5.068   4.954   1.495
 7518SOL     OW22796   4.546   3.733   0.522
 7518SOL    HW122797   4.586   3.816   0.496
 7518SOL    HW222798   4.452   3.752   0.525
 7519SOL     OW22799   3.911   4.684   1.282
 7519SOL    HW122800   3.998   4.646   1.267
 7519SOL    HW222801   3.854   4.638   1.220
 7520SOL     OW22802   5.206   4.755   0.211
 7520SOL    HW122803   5.145   4.690   0.246
 7520SOL    HW222804   5.292   4.726   0.242
 7521SOL     OW22805   4.906   5.539   1.627
 7521SOL    HW122806   4.912   5.600   1.554
 7521SOL    HW222807   4.925   5.453   1.588
 7522SOL     OW22808   4.069   3.972   1.838
 7522SOL    HW122809   4.108   4.056   1.858
 7522SOL    HW222810   3.975   3.984   1.853
 7523SOL     OW22811   5.191   5.144   0.944
 7523SOL    HW122812   5.125   5.159   1.012
 7523SOL    HW222813   5.178   5.052   0.919
 7524SOL     OW22814   5.366   5.487   0.586
 7524SOL    HW122815   5.349   5.454   0.497
 7524SOL    HW222816   5.355   5.410   0.642
 7525SOL     OW22817   4.325   4.436   0.266
 7525SOL    HW122818   4.328   4.525   0.229
 7525SOL    HW222819   4.264   4.443   0.339
 7526SOL     OW22820   5.003   4.092   0.934
 7526SOL    HW122821   4.914   4.058   0.943
 7526SOL    HW222822   5.056   4.038   0.992
 7527SOL     OW22823   5.295   5.402   0.319
 7527SOL    HW122824   5.386   5.430   0.315
 7527SOL    HW222825   5.268   5.393   0.228
 7528SOL     OW22826   4.515   4.342   1.445
 7528SOL    HW122827   4.490   4.315   1.533
 7528SOL    HW222828   4.482   4.271   1.389
 7529SOL     OW22829   5.115   4.198   1.678
 7529SOL    HW122830   5.120   4.243   1.762
 7529SOL    HW222831   5.172   4.122   1.688
 7530SOL     OW22832   4.673   4.608   1.587
 7530SOL    HW122833   4.728   4.541   1.548
 7530SOL    HW222834   4.624   4.646   1.514
 7531SOL     OW22835   4.719   4.132   1.231
 7531SOL    HW122836   4.629   4.148   1.260
 7531SOL    HW222837   4.710   4.090   1.145
 7532SOL     OW22838   4.781   4.425   0.426
 7532SOL    HW122839   4.800   4.421   0.520
 7532SOL    HW222840   4.696   4.380   0.417
 7533SOL     OW22841   3.815   4.542   0.775
 7533SOL    HW122842   3.894   4.536   0.828
 7533SOL    HW222843   3.768   4.618   0.810
 7534SOL     OW22844   3.848   5.598   1.585
 7534SOL    HW122845   3.853   5.575   1.677
 7534SOL    HW222846   3.764   5.561   1.555
 7535SOL     OW22847   4.614   4.068   0.207
 7535SOL    HW122848   4.659   4.125   0.146
 7535SOL    HW222849   4.638   3.979   0.181
 7536SOL     OW22850   5.425   4.293   1.831
 7536SOL    HW122851   5.392   4.368   1.781
 7536SOL    HW222852   5.454   4.231   1.765
 7537SOL     OW22853   5.111   4.864   0.557
 7537SOL    HW122854   5.190   4.852   0.503
 7537SOL    HW222855   5.057   4.924   0.506
 7538SOL     OW22856   4.276   3.899   0.899
 7538SOL    HW122857   4.278   3.930   0.990
 7538SOL    HW222858   4.275   3.979   0.846
 7539SOL     OW22859   4.720   5.162   0.473
 7539SOL    HW122860   4.691   5.239   0.424
 7539SOL    HW222861   4.694   5.180   0.564
 7540SOL     OW22862   4.078   5.539   0.872
 7540SOL    HW122863   4.122   5.454   0.877
 7540SOL    HW222864   4.146   5.603   0.891
 7541SOL     OW22865   5.527   4.769   0.876
 7541SOL    HW122866   5.477   4.752   0.797
 7541SOL    HW222867   5.462   4.778   0.945
 7542SOL     OW22868   4.949   5.265   1.514
 7542SOL    HW122869   4.938   5.193   1.576
 7542SOL    HW222870   4.882   5.250   1.447
 7543SOL     OW22871   4.033   4.683   0.226
 7543SOL    HW122872   4.123   4.692   0.195
 7543SOL    HW222873   4.011   4.591   0.207
 7544SOL     OW22874   5.207   4.471   0.720
 7544SOL    HW122875   5.206   4.435   0.809
 7544SOL    HW222876   5.284   4.527   0.718
 7545SOL     OW22877   4.196   4.993   1.738
 7545SOL    HW122878   4.169   4.998   1.646
 7545SOL    HW222879   4.113   4.989   1.787
 7546SOL     OW22880   4.846   5.494   0.242
 7546SOL    HW122881   4.778   5.448   0.291
 7546SOL    HW222882   4.878   5.429   0.179
 7547SOL     OW22883   3.927   3.992   1.504
 7547SOL    HW122884   3.847   4.044   1.510
 7547SOL    HW222885   3.903   3.906   1.540
 7548SOL     OW22886   5.376   5.157   0.110
 7548SOL    HW122887   5.320   5.225   0.073
 7548SOL    HW222888   5.320   5.111   0.173
 7549SOL     OW22889   4.205   5.420   0.381
 7549SOL    HW122890   4.236   5.501   0.421
 7549SOL    HW222891   4.260   5.408   0.304
 7550SOL     OW22892   3.981   5.514   1.227
 7550SOL    HW122893   4.029   5.442   1.267
 7550SOL    HW222894   3.972   5.488   1.135
 7551SOL     OW22895   4.664   5.425   0.896
 7551SOL    HW122896   4.744   5.376   0.918
 7551SOL    HW222897   4.623   5.374   0.826
 7552SOL     OW22898   4.125   4.416   0.465
 7552SOL    HW122899   4.140   4.323   0.484
 7552SOL    HW222900   4.032   4.429   0.483
 7553SOL     OW22901   5.249   3.949   1.723
 7553SOL    HW122902   5.261   3.968   1.816
 7553SOL    HW222903   5.181   3.882   1.720
 7554SOL     OW22904   4.487   4.002   1.756
 7554SOL    HW122905   4.568   3.952   1.753
 7554SOL    HW222906   4.441   3.969   1.833
 7555SOL     OW22907   4.598   5.247   1.196
 7555SOL    HW122908   4.581   5.209   1.110
 7555SOL    HW222909   4.668   5.193   1.233
 7556SOL     OW22910   5.061   4.314   1.433
 7556SOL    HW122911   5.092   4.283   1.518
 7556SOL    HW222912   5.099   4.401   1.423
 7557SOL     OW22913   4.543   5.112   0.950
 7557SOL    HW122914   4.627   5.101   0.906
 7557SOL    HW222915   4.480   5.119   0.878
 7558SOL     OW22916   4.654   4.233   0.901
 7558SOL    HW122917   4.628   4.224   0.809
 7558SOL    HW222918   4.684   4.145   0.926
 7559SOL     OW22919   4.279   3.795   0.501
 7559SOL    HW122920   4.199   3.794   0.553
 7559SOL    HW222921   4.267   3.868   0.440
 7560SOL     OW22922   5.140   4.941   0.006
 7560SOL    HW122923   5.166   4.865   0.059
 7560SOL    HW222924   5.062   4.975   0.050
 7561SOL     OW22925   4.671   3.973   0.462
 7561SOL    HW122926   4.643   4.013   0.380
 7561SOL    HW222927   4.765   3.988   0.465
 7562SOL     OW22928   4.804   4.410   1.456
 7562SOL    HW122929   4.739   4.340   1.459
 7562SOL    HW222930   4.888   4.365   1.450
 7563SOL     OW22931   4.940   5.295   0.798
 7563SOL    HW122932   4.954   5.359   0.728
 7563SOL    HW222933   5.012   5.310   0.859
 7564SOL     OW22934   4.201   4.878   0.730
 7564SOL    HW122935   4.131   4.857   0.791
 7564SOL    HW222936   4.162   4.868   0.644
 7565SOL     OW22937   4.979   5.510   0.614
 7565SOL    HW122938   5.031   5.576   0.569
 7565SOL    HW222939   4.908   5.559   0.655
 7566SOL     OW22940   4.794   4.325   0.026
 7566SOL    HW122941   4.701   4.331   0.050
 7566SOL    HW222942   4.838   4.300   0.107
 7567SOL     OW22943   3.810   4.277   1.393
 7567SOL    HW122944   3.902   4.278   1.366
 7567SOL    HW222945   3.804   4.347   1.458
 7568SOL     OW22946   4.281   3.952   1.172
 7568SOL    HW122947   4.323   3.879   1.219
 7568SOL    HW222948   4.189   3.949   1.199
 7569SOL     OW22949   4.591   4.179   0.641
 7569SOL    HW122950   4.552   4.236   0.575
 7569SOL    HW222951   4.614   4.099   0.594
 7570SOL     OW22952   4.746   3.774   0.742
 7570SOL    HW122953   4.682   3.771   0.671
 7570SOL    HW222954   4.720   3.702   0.800
 7571SOL     OW22955   5.165   4.883   0.859
 7571SOL    HW122956   5.094   4.820   0.859
 7571SOL    HW222957   5.191   4.891   0.767
 7572SOL     OW22958   5.190   4.336   0.967
 7572SOL    HW122959   5.132   4.259   0.970
 7572SOL    HW222960   5.246   4.327   1.043
 7573SOL     OW22961   5.548   4.528   0.396
 7573SOL    HW122962   5.610   4.467   0.436
 7573SOL    HW222963   5.545   4.502   0.304
 7574SOL     OW22964   4.199   5.153   0.155
 7574SOL    HW122965   4.142   5.103   0.213
 7574SOL    HW222966   4.158   5.147   0.069
 7575SOL     OW22967   5.401   4.988   0.651
 7575SOL    HW122968   5.496   4.987   0.663
 7575SOL    HW222969   5.376   5.079   0.666
 7576SOL     OW22970   5.113   4.276   0.062
 7576SOL    HW122971   5.056   4.273   0.138
 7576SOL    HW222972   5.169   4.198   0.070
 7577SOL     OW22973   4.230   3.986   0.310
 7577SOL    HW122974   4.258   3.931   0.236
 7577SOL    HW222975   4.207   4.070   0.271
 7578SOL     OW22976   5.471   4.967   1.558
 7578SOL    HW122977   5.558   4.929   1.549
 7578SOL    HW222978   5.486   5.056   1.589
 7579SOL     OW22979   4.777   5.078   1.332
 7579SOL    HW122980   4.701   5.046   1.381
 7579SOL    HW222981   4.852   5.036   1.373
 7580SOL     OW22982   5.333   5.353   1.660
 7580SOL    HW122983   5.324   5.387   1.571
 7580SOL    HW222984   5.414   5.302   1.658
 7581SOL     OW22985   4.861   4.938   1.102
 7581SOL    HW122986   4.800   4.975   1.165
 7581SOL    HW222987   4.832   4.972   1.017
 7582SOL     OW22988   5.345   4.818   1.075
 7582SOL    HW122989   5.337   4.882   1.146
 7582SOL    HW222990   5.272   4.838   1.017
 7583SOL     OW22991   4.643   3.815   1.390
 7583SOL    HW122992   4.665   3.798   1.299
 7583SOL    HW222993   4.722   3.855   1.427
 7584SOL     OW22994   4.708   4.839   1.723
 7584SOL    HW122995   4.617   4.856   1.748
 7584SOL    HW222996   4.704   4.760   1.669
 7585SOL     OW22997   4.436   4.785   0.373
 7585SOL    HW122998   4.420   4.764   0.465
 7585SOL    HW222999   4.513   4.733   0.350
 7586SOL     OW23000   4.146   4.544   1.253
 7586SOL    HW123001   4.214   4.554   1.320
 7586SOL    HW223002   4.112   4.456   1.266
 7587SOL     OW23003   4.987   4.097   1.283
 7587SOL    HW123004   5.019   4.176   1.328
 7587SOL    HW223005   4.896   4.118   1.261
 7588SOL     OW23006   3.800   5.298   1.359
 7588SOL    HW123007   3.772   5.368   1.301
 7588SOL    HW223008   3.895   5.296   1.349
 7589SOL     OW23009   4.091   4.843   0.486
 7589SOL    HW123010   4.071   4.915   0.426
 7589SOL    HW223011   4.081   4.764   0.433
 7590SOL     OW23012   4.269   4.253   0.858
 7590SOL    HW123013   4.284   4.311   0.784
 7590SOL    HW223014   4.336   4.279   0.922
 7591SOL     OW23015   4.971   5.066   0.405
 7591SOL    HW123016   5.021   5.140   0.439
 7591SOL    HW223017   4.881   5.082   0.435
 7592SOL     OW23018   5.016   5.186   1.149
 7592SOL    HW123019   5.071   5.191   1.227
 7592SOL    HW223020   4.962   5.108   1.162
 7593SOL     OW23021   5.315   4.349   0.483
 7593SOL    HW123022   5.257   4.392   0.546
 7593SOL    HW223023   5.368   4.420   0.447
 7594SOL     OW23024   4.069   5.255   1.308
 7594SOL    HW123025   4.059   5.209   1.225
 7594SOL    HW223026   4.164   5.266   1.317
 7595SOL     OW23027   4.143   4.470   1.605
 7595SOL    HW123028   4.206   4.513   1.547
 7595SOL    HW223029   4.180   4.384   1.622
 7596SOL     OW23030   5.335   4.506   1.688
 7596SOL    HW123031   5.249   4.547   1.682
 7596SOL    HW223032   5.387   4.547   1.619
 7597SOL     OW23033   4.720   3.859   1.755
 7597SOL    HW123034   4.778   3.932   1.734
 7597SOL    HW223035   4.769   3.781   1.729
 7598SOL     OW23036   4.220   3.758   1.753
 7598SOL    HW123037   4.172   3.707   1.688
 7598SOL    HW223038   4.164   3.834   1.769
 7599SOL     OW23039   4.310   4.598   1.033
 7599SOL    HW123040   4.343   4.687   1.035
 7599SOL    HW223041   4.253   4.592   1.110
 7600SOL     OW23042   5.067   4.582   1.020
 7600SOL    HW123043   4.982   4.566   0.980
 7600SOL    HW223044   5.115   4.500   1.009
 7601SOL     OW23045   4.917   4.249   0.265
 7601SOL    HW123046   4.928   4.173   0.321
 7601SOL    HW223047   4.880   4.316   0.322
 7602SOL     OW23048   4.019   3.920   1.246
 7602SOL    HW123049   3.983   3.951   1.329
 7602SOL    HW223050   4.002   3.826   1.246
 7603SOL     OW23051   3.771   5.036   1.273
 7603SOL    HW123052   3.802   4.980   1.343
 7603SOL    HW223053   3.775   5.124   1.309
 7604SOL     OW23054   4.442   4.351   1.051
 7604SOL    HW123055   4.520   4.341   0.996
 7604SOL    HW223056   4.413   4.441   1.035
 7605SOL     OW23057   5.466   4.683   1.861
 7605SOL    HW123058   5.422   4.615   1.809
 7605SOL    HW223059   5.404   4.702   1.931
 7606SOL     OW23060   4.035   3.790   0.627
 7606SOL    HW123061   4.010   3.879   0.649
 7606SOL    HW223062   4.042   3.746   0.712
 7607SOL     OW23063   5.350   4.100   0.371
 7607SOL    HW123064   5.376   4.038   0.439
 7607SOL    HW223065   5.331   4.181   0.419
 7608SOL     OW23066   4.753   4.482   0.958
 7608SOL    HW123067   4.743   4.499   1.051
 7608SOL    HW223068   4.726   4.390   0.947
 7609SOL     OW23069   4.704   5.290   1.723
 7609SOL    HW123070   4.688   5.334   1.639
 7609SOL    HW223071   4.748   5.208   1.700
 7610SOL     OW23072   5.573   5.224   1.603
 7610SOL    HW123073   5.596   5.252   1.515
 7610SOL    HW223074   5.653   5.237   1.654
 7611SOL     OW23075   4.075   4.641   1.810
 7611SOL    HW123076   4.155   4.660   1.859
 7611SOL    HW223077   4.102   4.578   1.743
 7612SOL     OW23078   5.199   4.024   0.153
 7612SOL    HW123079   5.170   3.935   0.168
 7612SOL    HW223080   5.258   4.043   0.226
 7613SOL     OW23081   5.022   4.545   0.041
 7613SOL    HW123082   5.062   4.460   0.023
 7613SOL    HW223083   5.041   4.598   6.963
 7614SOL     OW23084   4.793   5.063   0.858
 7614SOL    HW123085   4.800   4.991   0.795
 7614SOL    HW223086   4.850   5.131   0.823
 7615SOL     OW23087   4.033   4.534   0.946
 7615SOL    HW123088   4.126   4.554   0.941
 7615SOL    HW223089   4.029   4.443   0.977
 7616SOL     OW23090   4.050   4.256   1.013
 7616SOL    HW123091   4.014   4.168   1.001
 7616SOL    HW223092   4.126   4.258   0.956
 7617SOL     OW23093   4.858   4.095   1.688
 7617SOL    HW123094   4.810   4.150   1.750
 7617SOL    HW223095   4.945   4.136   1.682
 7618SOL     OW23096   4.884   3.920   1.473
 7618SOL    HW123097   4.873   3.983   1.545
 7618SOL    HW223098   4.927   3.970   1.404
 7619SOL     OW23099   3.814   5.504   0.943
 7619SOL    HW123100   3.783   5.427   0.895
 7619SOL    HW223101   3.903   5.519   0.911
 7620SOL     OW23102   4.214   5.299   0.903
 7620SOL    HW123103   4.283   5.360   0.927
 7620SOL    HW223104   4.257   5.235   0.846
 7621SOL     OW23105   4.693   4.509   1.222
 7621SOL    HW123106   4.755   4.493   1.294
 7621SOL    HW223107   4.611   4.471   1.252
 7622SOL     OW23108   3.761   4.275   1.117
 7622SOL    HW123109   3.842   4.269   1.066
 7622SOL    HW223110   3.790   4.275   1.209
 7623SOL     OW23111   3.915   4.247   1.733
 7623SOL    HW123112   3.968   4.202   1.667
 7623SOL    HW223113   3.880   4.324   1.687
 7624SOL     OW23114   5.106   4.655   1.656
 7624SOL    HW123115   5.127   4.749   1.652
 7624SOL    HW223116   5.102   4.628   1.565
 7625SOL     OW23117   4.544   4.291   0.379
 7625SOL    HW123118   4.550   4.219   0.316
 7625SOL    HW223119   4.471   4.344   0.348
 7626SOL     OW23120   5.364   4.324   1.178
 7626SOL    HW123121   5.354   4.266   1.254
 7626SOL    HW223122   5.452   4.307   1.145
 7627SOL     OW23123   3.960   5.272   1.722
 7627SOL    HW123124   3.939   5.335   1.791
 7627SOL    HW223125   3.969   5.188   1.768
 7628SOL     OW23126   4.441   4.167   1.250
 7628SOL    HW123127   4.381   4.096   1.227
 7628SOL    HW223128   4.430   4.231   1.180
 7629SOL     OW23129   4.643   5.402   1.473
 7629SOL    HW123130   4.620   5.362   1.390
 7629SOL    HW223131   4.638   5.497   1.456
 7630SOL     OW23132   4.176   4.221   0.183
 7630SOL    HW123133   4.236   4.290   0.211
 7630SOL    HW223134   4.090   4.263   0.184
 7631SOL     OW23135   3.863   4.868   1.475
 7631SOL    HW123136   3.866   4.822   1.559
 7631SOL    HW223137   3.881   4.800   1.410
 7632SOL     OW23138   5.042   4.766   1.219
 7632SOL    HW123139   5.063   4.703   1.150
 7632SOL    HW223140   4.978   4.825   1.179
 7633SOL     OW23141   5.025   4.571   0.314
 7633SOL    HW123142   4.948   4.534   0.355
 7633SOL    HW223143   5.016   4.549   0.221
 7634SOL     OW23144   5.506   5.459   1.160
 7634SOL    HW123145   5.565   5.485   1.089
 7634SOL    HW223146   5.477   5.371   1.136
 7635SOL     OW23147   4.963   5.457   1.103
 7635SOL    HW123148   5.047   5.482   1.063
 7635SOL    HW223149   4.974   5.364   1.125
 7636SOL     OW23150   3.812   4.991   1.008
 7636SOL    HW123151   3.793   5.004   1.101
 7636SOL    HW223152   3.741   4.933   0.978
 7637SOL     OW23153   4.404   5.397   1.741
 7637SOL    HW123154   4.345   5.471   1.731
 7637SOL    HW223155   4.475   5.414   1.679
 7638SOL     OW23156   4.662   3.802   0.110
 7638SOL    HW123157   4.731   3.853   0.068
 7638SOL    HW223158   4.707   3.744   0.170
 7639SOL     OW23159   5.454   3.892   0.535
 7639SOL    HW123160   5.518   3.875   0.466
 7639SOL    HW223161   5.425   3.805   0.563
 7640SOL     OW23162   5.113   5.285   0.496
 7640SOL    HW123163   5.172   5.318   0.429
 7640SOL    HW223164   5.062   5.362   0.523
 7641SOL     OW23165   3.865   5.521   1.843
 7641SOL    HW123166   3.815   5.453   1.889
 7641SOL    HW223167   3.912   5.567   1.912
 7642SOL     OW23168   5.003   4.648   0.676
 7642SOL    HW123169   5.076   4.587   0.684
 7642SOL    HW223170   5.038   4.721   0.625
 7643SOL     OW23171   4.526   5.001   1.422
 7643SOL    HW123172   4.498   5.043   1.504
 7643SOL    HW223173   4.454   5.020   1.361
 7644SOL     OW23174   4.399   5.334   0.193
 7644SOL    HW123175   4.400   5.377   0.107
 7644SOL    HW223176   4.344   5.257   0.180
 7645SOL     OW23177   5.342   5.452   1.393
 7645SOL    HW123178   5.397   5.456   1.314
 7645SOL    HW223179   5.328   5.544   1.416
 7646SOL     OW23180   5.567   3.893   0.965
 7646SOL    HW123181   5.596   3.805   0.941
 7646SOL    HW223182   5.480   3.901   0.925
 7647SOL     OW23183   3.979   4.040   0.715
 7647SOL    HW123184   3.893   4.074   0.693
 7647SOL    HW223185   3.979   4.035   0.811
 7648SOL     OW23186   4.942   5.321   0.043
 7648SOL    HW123187   4.934   5.229   0.068
 7648SOL    HW223188   4.858   5.342   0.001
 7649SOL     OW23189   4.548   4.731   1.376
 7649SOL    HW123190   4.589   4.725   1.291
 7649SOL    HW223191   4.543   4.826   1.393
 7650SOL     OW23192   4.646   4.638   0.292
 7650SOL    HW123193   4.698   4.665   0.217
 7650SOL    HW223194   4.699   4.571   0.336
 7651SOL     OW23195   5.209   5.378   0.043
 7651SOL    HW123196   5.116   5.356   0.040
 7651SOL    HW223197   5.232   5.397   6.952
 7652SOL     OW23198   4.090   5.030   1.493
 7652SOL    HW123199   4.078   5.106   1.435
 7652SOL    HW223200   4.013   4.975   1.478
 7653SOL     OW23201   5.330   5.009   1.279
 7653SOL    HW123202   5.389   4.991   1.351
 7653SOL    HW223203   5.270   5.075   1.312
 7654SOL     OW23204   4.788   4.834   0.712
 7654SOL    HW123205   4.715   4.785   0.749
 7654SOL    HW223206   4.852   4.767   0.687
 7655SOL     OW23207   4.750   3.966   0.965
 7655SOL    HW123208   4.747   3.919   0.881
 7655SOL    HW223209   4.744   3.897   1.031
 7656SOL     OW23210   4.341   5.200   0.486
 7656SOL    HW123211   4.375   5.155   0.409
 7656SOL    HW223212   4.278   5.264   0.451
 7657SOL     OW23213   5.453   4.115   1.381
 7657SOL    HW123214   5.525   4.178   1.380
 7657SOL    HW223215   5.482   4.045   1.322
 7658SOL     OW23216   4.004   5.040   0.307
 7658SOL    HW123217   3.919   5.017   0.270
 7658SOL    HW223218   3.983   5.092   0.385
 7659SOL     OW23219   3.840   4.761   1.728
 7659SOL    HW123220   3.763   4.732   1.777
 7659SOL    HW223221   3.913   4.716   1.769
 7660SOL     OW23222   4.401   3.917   1.499
 7660SOL    HW123223   4.485   3.896   1.460
 7660SOL    HW223224   4.423   3.951   1.586
 7661SOL     OW23225   3.831   4.040   0.008
 7661SOL    HW123226   3.772   3.987   6.954
 7661SOL    HW223227   3.849   4.118   6.956
 7662SOL     OW23228   5.148   4.580   1.396
 7662SOL    HW123229   5.097   4.641   1.342
 7662SOL    HW223230   5.236   4.583   1.359
 7663SOL     OW23231   3.772   3.893   0.326
 7663SOL    HW123232   3.763   3.983   0.293
 7663SOL    HW223233   3.843   3.856   0.274
 7664SOL     OW23234   4.909   5.063   0.126
 7664SOL    HW123235   4.816   5.048   0.111
 7664SOL    HW223236   4.922   5.052   0.220
 7665SOL     OW23237   4.345   4.555   1.436
 7665SOL    HW123238   4.403   4.630   1.422
 7665SOL    HW223239   4.405   4.480   1.442
 7666SOL     OW23240   5.207   5.513   0.984
 7666SOL    HW123241   5.233   5.582   0.922
 7666SOL    HW223242   5.290   5.479   1.017
 7667SOL     OW23243   4.443   4.282   1.698
 7667SOL    HW123244   4.487   4.340   1.759
 7667SOL    HW223245   4.459   4.194   1.732
 7668SOL     OW23246   5.198   4.916   1.627
 7668SOL    HW123247   5.186   4.933   1.721
 7668SOL    HW223248   5.290   4.937   1.610
 7669SOL     OW23249   4.092   5.465   1.567
 7669SOL    HW123250   4.010   5.512   1.552
 7669SOL    HW223251   4.066   5.383   1.607
 7670SOL     OW23252   5.386   4.603   1.255
 7670SOL    HW123253   5.383   4.518   1.211
 7670SOL    HW223254   5.376   4.667   1.184
 7671SOL     OW23255   4.943   4.042   0.454
 7671SOL    HW123256   5.024   3.997   0.430
 7671SOL    HW223257   4.965   4.091   0.533
 7672SOL     OW23258   4.310   4.455   0.672
 7672SOL    HW123259   4.350   4.541   0.661
 7672SOL    HW223260   4.246   4.449   0.601
 7673SOL     OW23261   5.479   4.087   1.654
 7673SOL    HW123262   5.466   4.104   1.561
 7673SOL    HW223263   5.405   4.031   1.679
 7674SOL     OW23264   5.474   4.656   1.510
 7674SOL    HW123265   5.462   4.750   1.523
 7674SOL    HW223266   5.455   4.642   1.417
 7675SOL     OW23267   4.629   5.104   0.054
 7675SOL    HW123268   4.571   5.084   0.127
 7675SOL    HW223269   4.628   5.200   0.048
 7676SOL     OW23270   4.388   5.506   0.936
 7676SOL    HW123271   4.370   5.598   0.918
 7676SOL    HW223272   4.483   5.498   0.931
 7677SOL     OW23273   4.595   4.696   0.854
 7677SOL    HW123274   4.644   4.623   0.891
 7677SOL    HW223275   4.554   4.739   0.930
 7678SOL     OW23276   4.806   4.709   0.077
 7678SOL    HW123277   4.823   4.762   6.999
 7678SOL    HW223278   4.877   4.645   0.078
 7679SOL     OW23279   5.570   5.278   0.839
 7679SOL    HW123280   5.490   5.265   0.789
 7679SOL    HW223281   5.568   5.209   0.907
 7680SOL     OW23282   3.949   5.021   1.851
 7680SOL    HW123283   3.892   4.952   1.815
 7680SOL    HW223284   3.918   5.033   1.941
 7681SOL     OW23285   3.811   4.956   0.667
 7681SOL    HW123286   3.838   4.908   0.745
 7681SOL    HW223287   3.851   4.909   0.594
 7682SOL     OW23288   4.409   5.134   1.631
 7682SOL    HW123289   4.331   5.091   1.666
 7682SOL    HW223290   4.407   5.222   1.669
 7683SOL     OW23291   5.535   3.904   1.235
 7683SOL    HW123292   5.540   3.809   1.248
 7683SOL    HW223293   5.546   3.917   1.141
 7684SOL     OW23294   4.152   4.157   0.526
 7684SOL    HW123295   4.178   4.084   0.470
 7684SOL    HW223296   4.101   4.116   0.596
 7685SOL     OW23297   5.418   5.211   1.092
 7685SOL    HW123298   5.341   5.190   1.040
 7685SOL    HW223299   5.422   5.140   1.157
 7686SOL     OW23300   4.062   4.285   1.293
 7686SOL    HW123301   4.114   4.227   1.347
 7686SOL    HW223302   4.077   4.256   1.203
 7687SOL     OW23303   4.556   5.303   0.677
 7687SOL    HW123304   4.535   5.368   0.610
 7687SOL    HW223305   4.482   5.243   0.676
 7688SOL     OW23306   5.152   3.955   1.116
 7688SOL    HW123307   5.171   3.871   1.157
 7688SOL    HW223308   5.102   4.003   1.182
 7689SOL     OW23309   4.733   3.740   1.133
 7689SOL    HW123310   4.678   3.674   1.089
 7689SOL    HW223311   4.820   3.701   1.135
 7690SOL     OW23312   4.511   5.044   0.305
 7690SOL    HW123313   4.477   4.957   0.324
 7690SOL    HW223314   4.583   5.057   0.367
 7691SOL     OW23315   4.343   5.281   1.287
 7691SOL    HW123316   4.343   5.364   1.336
 7691SOL    HW223317   4.432   5.275   1.251
 7692SOL     OW23318   5.078   3.780   0.186
 7692SOL    HW123319   5.115   3.713   0.128
 7692SOL    HW223320   4.995   3.742   0.216
 7693SOL     OW23321   5.013   4.185   0.675
 7693SOL    HW123322   4.964   4.267   0.680
 7693SOL    HW223323   5.012   4.151   0.765
 7694SOL     OW23324   5.307   3.918   0.884
 7694SOL    HW123325   5.253   3.945   0.958
 7694SOL    HW223326   5.309   3.994   0.826
 7695SOL     OW23327   3.812   4.779   0.371
 7695SOL    HW123328   3.888   4.750   0.321
 7695SOL    HW223329   3.757   4.701   0.380
 7696SOL     OW23330   4.618   5.386   0.352
 7696SOL    HW123331   4.543   5.363   0.297
 7696SOL    HW223332   4.587   5.459   0.405
 7697SOL     OW23333   3.945   4.347   1.994
 7697SOL    HW123334   3.856   4.343   2.029
 7697SOL    HW223335   3.935   4.325   1.901
 7698SOL     OW23336   3.950   4.033   2.828
 7698SOL    HW123337   3.996   4.007   2.908
 7698SOL    HW223338   3.871   3.980   2.828
 7699SOL     OW23339   3.721   4.114   2.495
 7699SOL    HW123340   3.643   4.145   2.540
 7699SOL    HW223341   3.692   4.034   2.450
 7700SOL     OW23342   4.294   5.023   3.049
 7700SOL    HW123343   4.208   5.024   3.008
 7700SOL    HW223344   4.309   5.112   3.079
 7701SOL     OW23345   5.298   5.239   2.571
 7701SOL    HW123346   5.254   5.215   2.652
 7701SOL    HW223347   5.228   5.243   2.506
 7702SOL     OW23348   4.858   4.423   2.556
 7702SOL    HW123349   4.906   4.505   2.543
 7702SOL    HW223350   4.810   4.436   2.638
 7703SOL     OW23351   5.504   4.321   2.087
 7703SOL    HW123352   5.476   4.317   1.995
 7703SOL    HW223353   5.463   4.244   2.128
 7704SOL     OW23354   4.469   4.861   2.911
 7704SOL    HW123355   4.403   4.898   2.970
 7704SOL    HW223356   4.509   4.936   2.868
 7705SOL     OW23357   4.600   4.482   3.687
 7705SOL    HW123358   4.585   4.551   3.752
 7705SOL    HW223359   4.621   4.529   3.606
 7706SOL     OW23360   4.409   4.718   2.506
 7706SOL    HW123361   4.475   4.713   2.574
 7706SOL    HW223362   4.340   4.774   2.543
 7707SOL     OW23363   4.438   4.873   3.683
 7707SOL    HW123364   4.486   4.950   3.714
 7707SOL    HW223365   4.359   4.909   3.643
 7708SOL     OW23366   4.055   5.139   2.929
 7708SOL    HW123367   3.980   5.098   2.885
 7708SOL    HW223368   4.098   5.190   2.861
 7709SOL     OW23369   5.182   5.227   3.225
 7709SOL    HW123370   5.237   5.305   3.235
 7709SOL    HW223371   5.113   5.238   3.290
 7710SOL     OW23372   4.134   4.129   3.420
 7710SOL    HW123373   4.227   4.105   3.413
 7710SOL    HW223374   4.087   4.051   3.390
 7711SOL     OW23375   5.328   4.164   2.608
 7711SOL    HW123376   5.258   4.183   2.545
 7711SOL    HW223377   5.328   4.240   2.666
 7712SOL     OW23378   3.943   5.441   2.330
 7712SOL    HW123379   3.965   5.515   2.386
 7712SOL    HW223380   4.018   5.432   2.271
 7713SOL     OW23381   4.861   5.067   3.557
 7713SOL    HW123382   4.903   5.059   3.643
 7713SOL    HW223383   4.809   4.987   3.549
 7714SOL     OW23384   3.958   5.169   2.399
 7714SOL    HW123385   3.936   5.263   2.401
 7714SOL    HW223386   3.901   5.130   2.465
 7715SOL     OW23387   3.994   4.820   2.758
 7715SOL    HW123388   3.989   4.730   2.791
 7715SOL    HW223389   3.931   4.869   2.811
 7716SOL     OW23390   4.323   5.517   3.289
 7716SOL    HW123391   4.243   5.499   3.337
 7716SOL    HW223392   4.348   5.605   3.317
 7717SOL     OW23393   4.301   4.709   2.004
 7717SOL    HW123394   4.350   4.753   1.934
 7717SOL    HW223395   4.340   4.741   2.085
 7718SOL     OW23396   5.320   3.851   3.327
 7718SOL    HW123397   5.346   3.930   3.279
 7718SOL    HW223398   5.299   3.883   3.415
 7719SOL     OW23399   3.843   4.382   2.425
 7719SOL    HW123400   3.812   4.294   2.445
 7719SOL    HW223401   3.834   4.430   2.507
 7720SOL     OW23402   5.568   5.476   2.191
 7720SOL    HW123403   5.638   5.452   2.252
 7720SOL    HW223404   5.584   5.568   2.171
 7721SOL     OW23405   3.765   5.313   1.981
 7721SOL    HW123406   3.746   5.221   2.001
 7721SOL    HW223407   3.738   5.361   2.059
 7722SOL     OW23408   5.414   4.643   2.508
 7722SOL    HW123409   5.495   4.598   2.483
 7722SOL    HW223410   5.391   4.695   2.431
 7723SOL     OW23411   5.375   4.826   2.292
 7723SOL    HW123412   5.461   4.826   2.251
 7723SOL    HW223413   5.382   4.891   2.363
 7724SOL     OW23414   4.341   5.115   2.597
 7724SOL    HW123415   4.297   5.031   2.606
 7724SOL    HW223416   4.325   5.143   2.507
 7725SOL     OW23417   5.008   4.959   3.282
 7725SOL    HW123418   5.038   4.890   3.222
 7725SOL    HW223419   5.068   4.954   3.357
 7726SOL     OW23420   4.546   3.730   2.379
 7726SOL    HW123421   4.587   3.812   2.353
 7726SOL    HW223422   4.452   3.749   2.381
 7727SOL     OW23423   3.917   4.685   3.139
 7727SOL    HW123424   4.000   4.642   3.116
 7727SOL    HW223425   3.854   4.614   3.146
 7728SOL     OW23426   5.255   4.725   2.062
 7728SOL    HW123427   5.186   4.667   2.095
 7728SOL    HW223428   5.298   4.758   2.141
 7729SOL     OW23429   4.907   5.539   3.489
 7729SOL    HW123430   4.912   5.601   3.416
 7729SOL    HW223431   4.925   5.454   3.450
 7730SOL     OW23432   4.114   3.942   3.729
 7730SOL    HW123433   4.128   4.037   3.733
 7730SOL    HW223434   4.040   3.932   3.669
 7731SOL     OW23435   5.192   5.143   2.807
 7731SOL    HW123436   5.126   5.160   2.874
 7731SOL    HW223437   5.178   5.052   2.781
 7732SOL     OW23438   5.375   5.482   2.438
 7732SOL    HW123439   5.358   5.447   2.350
 7732SOL    HW223440   5.359   5.409   2.497
 7733SOL     OW23441   4.318   4.439   2.134
 7733SOL    HW123442   4.321   4.523   2.089
 7733SOL    HW223443   4.253   4.450   2.203
 7734SOL     OW23444   5.002   4.093   2.797
 7734SOL    HW123445   4.913   4.058   2.806
 7734SOL    HW223446   5.055   4.038   2.855
 7735SOL     OW23447   5.302   5.398   2.173
 7735SOL    HW123448   5.394   5.422   2.165
 7735SOL    HW223449   5.273   5.381   2.084
 7736SOL     OW23450   4.517   4.334   3.294
 7736SOL    HW123451   4.496   4.314   3.385
 7736SOL    HW223452   4.468   4.269   3.244
 7737SOL     OW23453   5.112   4.197   3.540
 7737SOL    HW123454   5.117   4.242   3.624
 7737SOL    HW223455   5.172   4.123   3.549
 7738SOL     OW23456   4.672   4.608   3.449
 7738SOL    HW123457   4.728   4.541   3.410
 7738SOL    HW223458   4.626   4.647   3.375
 7739SOL     OW23459   4.716   4.131   3.095
 7739SOL    HW123460   4.629   4.158   3.124
 7739SOL    HW223461   4.702   4.103   3.004
 7740SOL     OW23462   4.779   4.422   2.285
 7740SOL    HW123463   4.797   4.416   2.379
 7740SOL    HW223464   4.695   4.377   2.275
 7741SOL     OW23465   3.808   4.542   2.644
 7741SOL    HW123466   3.891   4.540   2.693
 7741SOL    HW223467   3.763   4.619   2.677
 7742SOL     OW23468   3.848   5.599   3.446
 7742SOL    HW123469   3.852   5.577   3.539
 7742SOL    HW223470   3.767   5.558   3.415
 7743SOL     OW23471   4.624   4.074   2.058
 7743SOL    HW123472   4.664   4.138   1.999
 7743SOL    HW223473   4.632   3.991   2.011
 7744SOL     OW23474   5.425   4.292   3.693
 7744SOL    HW123475   5.392   4.367   3.643
 7744SOL    HW223476   5.455   4.231   3.626
 7745SOL     OW23477   5.106   4.866   2.401
 7745SOL    HW123478   5.185   4.856   2.348
 7745SOL    HW223479   5.053   4.928   2.352
 7746SOL     OW23480   4.276   3.908   2.802
 7746SOL    HW123481   4.212   3.933   2.869
 7746SOL    HW223482   4.281   3.984   2.744
 7747SOL     OW23483   4.722   5.169   2.329
 7747SOL    HW123484   4.693   5.245   2.278
 7747SOL    HW223485   4.697   5.189   2.419
 7748SOL     OW23486   4.077   5.539   2.734
 7748SOL    HW123487   4.122   5.454   2.740
 7748SOL    HW223488   4.146   5.603   2.753
 7749SOL     OW23489   5.525   4.773   2.736
 7749SOL    HW123490   5.474   4.754   2.657
 7749SOL    HW223491   5.461   4.781   2.806
 7750SOL     OW23492   4.950   5.265   3.376
 7750SOL    HW123493   4.938   5.193   3.437
 7750SOL    HW223494   4.881   5.252   3.310
 7751SOL     OW23495   4.036   4.686   2.118
 7751SOL    HW123496   4.119   4.704   2.074
 7751SOL    HW223497   4.008   4.602   2.081
 7752SOL     OW23498   5.207   4.475   2.582
 7752SOL    HW123499   5.204   4.436   2.669
 7752SOL    HW223500   5.285   4.530   2.582
 7753SOL     OW23501   4.194   4.993   3.601
 7753SOL    HW123502   4.168   4.999   3.509
 7753SOL    HW223503   4.111   4.991   3.649
 7754SOL     OW23504   4.850   5.502   2.090
 7754SOL    HW123505   4.773   5.464   2.132
 7754SOL    HW223506   4.874   5.438   2.023
 7755SOL     OW23507   5.352   5.107   1.955
 7755SOL    HW123508   5.311   5.192   1.939
 7755SOL    HW223509   5.285   5.043   1.932
 7756SOL     OW23510   4.186   5.461   2.180
 7756SOL    HW123511   4.232   5.515   2.244
 7756SOL    HW223512   4.255   5.425   2.125
 7757SOL     OW23513   5.124   3.830   2.305
 7757SOL    HW123514   5.116   3.805   2.213
 7757SOL    HW223515   5.218   3.837   2.320
 7758SOL     OW23516   3.983   5.515   3.088
 7758SOL    HW123517   4.029   5.442   3.128
 7758SOL    HW223518   3.970   5.488   2.997
 7759SOL     OW23519   4.664   5.425   2.757
 7759SOL    HW123520   4.743   5.376   2.780
 7759SOL    HW223521   4.624   5.374   2.687
 7760SOL     OW23522   4.122   4.419   2.335
 7760SOL    HW123523   4.139   4.326   2.347
 7760SOL    HW223524   4.028   4.429   2.353
 7761SOL     OW23525   5.252   3.951   3.585
 7761SOL    HW123526   5.264   3.970   3.678
 7761SOL    HW223527   5.180   3.888   3.582
 7762SOL     OW23528   4.372   3.839   1.963
 7762SOL    HW123529   4.431   3.765   1.980
 7762SOL    HW223530   4.317   3.810   1.891
 7763SOL     OW23531   4.486   4.017   3.632
 7763SOL    HW123532   4.561   3.960   3.617
 7763SOL    HW223533   4.450   3.991   3.716
 7764SOL     OW23534   4.598   5.248   3.058
 7764SOL    HW123535   4.581   5.209   2.971
 7764SOL    HW223536   4.668   5.193   3.094
 7765SOL     OW23537   5.060   4.313   3.294
 7765SOL    HW123538   5.091   4.282   3.379
 7765SOL    HW223539   5.098   4.400   3.285
 7766SOL     OW23540   4.543   5.112   2.810
 7766SOL    HW123541   4.628   5.101   2.767
 7766SOL    HW223542   4.481   5.120   2.738
 7767SOL     OW23543   4.654   4.231   2.761
 7767SOL    HW123544   4.628   4.225   2.669
 7767SOL    HW223545   4.684   4.143   2.783
 7768SOL     OW23546   4.279   3.787   2.357
 7768SOL    HW123547   4.199   3.786   2.409
 7768SOL    HW223548   4.270   3.864   2.300
 7769SOL     OW23549   5.152   4.926   1.900
 7769SOL    HW123550   5.181   4.851   1.952
 7769SOL    HW223551   5.067   4.948   1.937
 7770SOL     OW23552   4.011   3.772   2.049
 7770SOL    HW123553   4.067   3.837   2.005
 7770SOL    HW223554   4.073   3.712   2.090
 7771SOL     OW23555   4.668   3.973   2.316
 7771SOL    HW123556   4.643   4.011   2.232
 7771SOL    HW223557   4.762   3.989   2.323
 7772SOL     OW23558   4.804   4.410   3.318
 7772SOL    HW123559   4.740   4.338   3.321
 7772SOL    HW223560   4.888   4.365   3.313
 7773SOL     OW23561   4.942   5.298   2.657
 7773SOL    HW123562   4.955   5.362   2.588
 7773SOL    HW223563   5.012   5.315   2.720
 7774SOL     OW23564   4.197   4.878   2.588
 7774SOL    HW123565   4.132   4.859   2.655
 7774SOL    HW223566   4.151   4.866   2.505
 7775SOL     OW23567   4.986   5.516   2.476
 7775SOL    HW123568   5.035   5.578   2.421
 7775SOL    HW223569   4.917   5.568   2.516
 7776SOL     OW23570   4.748   4.256   1.889
 7776SOL    HW123571   4.704   4.339   1.869
 7776SOL    HW223572   4.813   4.279   1.956
 7777SOL     OW23573   4.590   4.180   2.500
 7777SOL    HW123574   4.546   4.238   2.437
 7777SOL    HW223575   4.614   4.103   2.449
 7778SOL     OW23576   4.741   3.781   2.608
 7778SOL    HW123577   4.683   3.776   2.532
 7778SOL    HW223578   4.720   3.704   2.660
 7779SOL     OW23579   5.164   4.883   2.719
 7779SOL    HW123580   5.092   4.821   2.720
 7779SOL    HW223581   5.188   4.891   2.626
 7780SOL     OW23582   5.190   4.336   2.827
 7780SOL    HW123583   5.132   4.259   2.831
 7780SOL    HW223584   5.246   4.327   2.903
 7781SOL     OW23585   5.563   4.533   2.248
 7781SOL    HW123586   5.622   4.485   2.306
 7781SOL    HW223587   5.540   4.470   2.179
 7782SOL     OW23588   4.213   5.147   2.013
 7782SOL    HW123589   4.137   5.118   2.064
 7782SOL    HW223590   4.210   5.094   1.933
 7783SOL     OW23591   5.404   4.988   2.503
 7783SOL    HW123592   5.498   4.987   2.518
 7783SOL    HW223593   5.377   5.078   2.525
 7784SOL     OW23594   5.117   4.297   1.932
 7784SOL    HW123595   5.056   4.275   2.003
 7784SOL    HW223596   5.202   4.268   1.964
 7785SOL     OW23597   4.251   3.985   2.170
 7785SOL    HW123598   4.301   3.941   2.102
 7785SOL    HW223599   4.223   4.067   2.130
 7786SOL     OW23600   5.471   4.967   3.420
 7786SOL    HW123601   5.558   4.929   3.411
 7786SOL    HW223602   5.486   5.056   3.451
 7787SOL     OW23603   4.776   5.077   3.193
 7787SOL    HW123604   4.701   5.046   3.242
 7787SOL    HW223605   4.851   5.035   3.235
 7788SOL     OW23606   5.333   5.353   3.522
 7788SOL    HW123607   5.324   5.387   3.433
 7788SOL    HW223608   5.414   5.302   3.520
 7789SOL     OW23609   4.861   4.937   2.964
 7789SOL    HW123610   4.800   4.974   3.027
 7789SOL    HW223611   4.832   4.972   2.879
 7790SOL     OW23612   5.345   4.819   2.937
 7790SOL    HW123613   5.338   4.882   3.009
 7790SOL    HW223614   5.271   4.838   2.880
 7791SOL     OW23615   4.708   4.839   3.586
 7791SOL    HW123616   4.617   4.856   3.611
 7791SOL    HW223617   4.704   4.760   3.532
 7792SOL     OW23618   4.435   4.787   2.234
 7792SOL    HW123619   4.419   4.766   2.326
 7792SOL    HW223620   4.510   4.733   2.208
 7793SOL     OW23621   4.155   4.546   3.112
 7793SOL    HW123622   4.215   4.562   3.184
 7793SOL    HW223623   4.139   4.451   3.114
 7794SOL     OW23624   4.985   4.095   3.144
 7794SOL    HW123625   5.017   4.173   3.189
 7794SOL    HW223626   4.894   4.114   3.124
 7795SOL     OW23627   3.800   5.303   3.224
 7795SOL    HW123628   3.770   5.368   3.161
 7795SOL    HW223629   3.894   5.297   3.211
 7796SOL     OW23630   4.058   4.845   2.352
 7796SOL    HW123631   4.059   4.919   2.291
 7796SOL    HW223632   4.057   4.768   2.296
 7797SOL     OW23633   4.282   4.245   2.720
 7797SOL    HW123634   4.294   4.305   2.647
 7797SOL    HW223635   4.345   4.275   2.786
 7798SOL     OW23636   4.971   5.074   2.254
 7798SOL    HW123637   5.027   5.145   2.286
 7798SOL    HW223638   4.883   5.096   2.287
 7799SOL     OW23639   5.016   5.186   3.010
 7799SOL    HW123640   5.071   5.191   3.089
 7799SOL    HW223641   4.961   5.109   3.025
 7800SOL     OW23642   5.301   4.342   2.348
 7800SOL    HW123643   5.251   4.388   2.415
 7800SOL    HW223644   5.344   4.411   2.298
 7801SOL     OW23645   4.069   5.257   3.169
 7801SOL    HW123646   4.057   5.209   3.087
 7801SOL    HW223647   4.163   5.267   3.178
 7802SOL     OW23648   4.155   4.456   3.478
 7802SOL    HW123649   4.214   4.499   3.416
 7802SOL    HW223650   4.185   4.365   3.480
 7803SOL     OW23651   5.335   4.505   3.550
 7803SOL    HW123652   5.249   4.547   3.544
 7803SOL    HW223653   5.387   4.547   3.481
 7804SOL     OW23654   4.710   3.858   3.609
 7804SOL    HW123655   4.769   3.931   3.590
 7804SOL    HW223656   4.755   3.781   3.574
 7805SOL     OW23657   4.316   4.594   2.895
 7805SOL    HW123658   4.345   4.685   2.895
 7805SOL    HW223659   4.256   4.588   2.970
 7806SOL     OW23660   5.067   4.582   2.881
 7806SOL    HW123661   4.980   4.565   2.844
 7806SOL    HW223662   5.114   4.500   2.869
 7807SOL     OW23663   4.923   4.250   2.123
 7807SOL    HW123664   4.931   4.172   2.178
 7807SOL    HW223665   4.881   4.315   2.180
 7808SOL     OW23666   3.780   5.039   3.135
 7808SOL    HW123667   3.804   4.979   3.206
 7808SOL    HW223668   3.776   5.125   3.177
 7809SOL     OW23669   4.448   4.349   2.921
 7809SOL    HW123670   4.523   4.341   2.862
 7809SOL    HW223671   4.415   4.437   2.905
 7810SOL     OW23672   5.465   4.683   3.723
 7810SOL    HW123673   5.422   4.615   3.671
 7810SOL    HW223674   5.404   4.702   3.793
 7811SOL     OW23675   4.036   3.782   2.486
 7811SOL    HW123676   4.010   3.872   2.503
 7811SOL    HW223677   4.043   3.743   2.574
 7812SOL     OW23678   5.348   4.104   2.220
 7812SOL    HW123679   5.376   4.039   2.283
 7812SOL    HW223680   5.323   4.180   2.273
 7813SOL     OW23681   4.754   4.481   2.818
 7813SOL    HW123682   4.743   4.498   2.911
 7813SOL    HW223683   4.727   4.390   2.806
 7814SOL     OW23684   4.705   5.291   3.585
 7814SOL    HW123685   4.689   5.334   3.501
 7814SOL    HW223686   4.748   5.208   3.561
 7815SOL     OW23687   5.573   5.224   3.465
 7815SOL    HW123688   5.596   5.252   3.377
 7815SOL    HW223689   5.653   5.237   3.516
 7816SOL     OW23690   4.060   4.621   3.672
 7816SOL    HW123691   4.142   4.652   3.710
 7816SOL    HW223692   4.087   4.563   3.601
 7817SOL     OW23693   5.249   3.995   1.987
 7817SOL    HW123694   5.186   3.929   2.017
 7817SOL    HW223695   5.284   4.033   2.067
 7818SOL     OW23696   5.009   4.548   1.889
 7818SOL    HW123697   5.052   4.462   1.894
 7818SOL    HW223698   5.042   4.586   1.808
 7819SOL     OW23699   4.794   5.065   2.720
 7819SOL    HW123700   4.800   4.993   2.657
 7819SOL    HW223701   4.851   5.133   2.684
 7820SOL     OW23702   4.035   4.542   2.801
 7820SOL    HW123703   4.129   4.561   2.798
 7820SOL    HW223704   4.030   4.451   2.832
 7821SOL     OW23705   4.055   4.276   2.862
 7821SOL    HW123706   4.007   4.195   2.847
 7821SOL    HW223707   4.134   4.268   2.808
 7822SOL     OW23708   4.855   4.092   3.549
 7822SOL    HW123709   4.807   4.147   3.611
 7822SOL    HW223710   4.942   4.133   3.542
 7823SOL     OW23711   4.915   3.910   3.345
 7823SOL    HW123712   4.884   3.976   3.407
 7823SOL    HW223713   4.941   3.961   3.267
 7824SOL     OW23714   3.733   5.039   2.054
 7824SOL    HW123715   3.646   5.056   2.019
 7824SOL    HW223716   3.728   4.951   2.090
 7825SOL     OW23717   3.814   5.504   2.805
 7825SOL    HW123718   3.783   5.426   2.758
 7825SOL    HW223719   3.902   5.518   2.772
 7826SOL     OW23720   4.214   5.299   2.765
 7826SOL    HW123721   4.283   5.360   2.789
 7826SOL    HW223722   4.257   5.235   2.707
 7827SOL     OW23723   4.696   4.507   3.082
 7827SOL    HW123724   4.755   4.491   3.156
 7827SOL    HW223725   4.611   4.473   3.112
 7828SOL     OW23726   5.106   4.655   3.518
 7828SOL    HW123727   5.127   4.748   3.514
 7828SOL    HW223728   5.102   4.628   3.426
 7829SOL     OW23729   4.542   4.294   2.230
 7829SOL    HW123730   4.547   4.220   2.169
 7829SOL    HW223731   4.467   4.345   2.199
 7830SOL     OW23732   5.364   4.324   3.039
 7830SOL    HW123733   5.354   4.267   3.115
 7830SOL    HW223734   5.452   4.307   3.007
 7831SOL     OW23735   3.962   5.271   3.586
 7831SOL    HW123736   3.941   5.333   3.656
 7831SOL    HW223737   3.968   5.186   3.630
 7832SOL     OW23738   4.393   4.165   3.115
 7832SOL    HW123739   4.298   4.173   3.127
 7832SOL    HW223740   4.413   4.224   3.043
 7833SOL     OW23741   4.644   5.402   3.334
 7833SOL    HW123742   4.620   5.361   3.251
 7833SOL    HW223743   4.639   5.496   3.318
 7834SOL     OW23744   4.182   4.215   2.040
 7834SOL    HW123745   4.242   4.284   2.066
 7834SOL    HW223746   4.097   4.258   2.033
 7835SOL     OW23747   3.874   4.866   3.332
 7835SOL    HW123748   3.876   4.817   3.414
 7835SOL    HW223749   3.892   4.801   3.264
 7836SOL     OW23750   5.043   4.766   3.080
 7836SOL    HW123751   5.063   4.703   3.011
 7836SOL    HW223752   4.978   4.825   3.041
 7837SOL     OW23753   5.042   4.580   2.164
 7837SOL    HW123754   4.968   4.550   2.216
 7837SOL    HW223755   5.014   4.567   2.073
 7838SOL     OW23756   5.505   5.458   3.021
 7838SOL    HW123757   5.564   5.485   2.951
 7838SOL    HW223758   5.477   5.370   2.997
 7839SOL     OW23759   4.963   5.456   2.965
 7839SOL    HW123760   5.046   5.481   2.925
 7839SOL    HW223761   4.974   5.364   2.986
 7840SOL     OW23762   3.807   4.992   2.871
 7840SOL    HW123763   3.796   5.007   2.965
 7840SOL    HW223764   3.733   4.935   2.848
 7841SOL     OW23765   4.404   5.397   3.603
 7841SOL    HW123766   4.344   5.471   3.593
 7841SOL    HW223767   4.474   5.414   3.540
 7842SOL     OW23768   5.448   3.883   2.366
 7842SOL    HW123769   5.517   3.867   2.301
 7842SOL    HW223770   5.431   3.798   2.405
 7843SOL     OW23771   5.118   5.292   2.355
 7843SOL    HW123772   5.175   5.326   2.286
 7843SOL    HW223773   5.066   5.367   2.383
 7844SOL     OW23774   3.864   5.522   3.704
 7844SOL    HW123775   3.815   5.454   3.750
 7844SOL    HW223776   3.912   5.568   3.774
 7845SOL     OW23777   5.002   4.652   2.531
 7845SOL    HW123778   5.076   4.593   2.542
 7845SOL    HW223779   5.037   4.724   2.478
 7846SOL     OW23780   4.525   5.002   3.284
 7846SOL    HW123781   4.497   5.044   3.365
 7846SOL    HW223782   4.453   5.020   3.223
 7847SOL     OW23783   4.392   5.352   2.018
 7847SOL    HW123784   4.405   5.366   1.924
 7847SOL    HW223785   4.336   5.274   2.023
 7848SOL     OW23786   5.342   5.452   3.254
 7848SOL    HW123787   5.396   5.456   3.176
 7848SOL    HW223788   5.328   5.544   3.278
 7849SOL     OW23789   5.567   3.893   2.827
 7849SOL    HW123790   5.596   3.805   2.803
 7849SOL    HW223791   5.480   3.901   2.788
 7850SOL     OW23792   3.979   4.038   2.557
 7850SOL    HW123793   3.893   4.072   2.534
 7850SOL    HW223794   3.981   4.043   2.653
 7851SOL     OW23795   4.932   5.324   1.896
 7851SOL    HW123796   4.921   5.232   1.922
 7851SOL    HW223797   4.866   5.338   1.828
 7852SOL     OW23798   4.551   4.733   3.237
 7852SOL    HW123799   4.587   4.729   3.149
 7852SOL    HW223800   4.544   4.826   3.256
 7853SOL     OW23801   4.641   4.634   2.154
 7853SOL    HW123802   4.701   4.668   2.087
 7853SOL    HW223803   4.692   4.567   2.199
 7854SOL     OW23804   5.212   5.355   1.908
 7854SOL    HW123805   5.118   5.343   1.892
 7854SOL    HW223806   5.251   5.360   1.821
 7855SOL     OW23807   4.092   5.033   3.355
 7855SOL    HW123808   4.079   5.108   3.297
 7855SOL    HW223809   4.018   4.976   3.338
 7856SOL     OW23810   5.331   5.009   3.141
 7856SOL    HW123811   5.389   4.991   3.215
 7856SOL    HW223812   5.270   5.076   3.174
 7857SOL     OW23813   4.789   4.836   2.575
 7857SOL    HW123814   4.715   4.786   2.611
 7857SOL    HW223815   4.851   4.769   2.548
 7858SOL     OW23816   4.746   3.967   2.826
 7858SOL    HW123817   4.745   3.922   2.742
 7858SOL    HW223818   4.739   3.897   2.891
 7859SOL     OW23819   4.331   5.212   2.342
 7859SOL    HW123820   4.380   5.162   2.277
 7859SOL    HW223821   4.253   5.242   2.294
 7860SOL     OW23822   5.453   4.115   3.242
 7860SOL    HW123823   5.525   4.178   3.242
 7860SOL    HW223824   5.482   4.045   3.184
 7861SOL     OW23825   3.988   5.066   2.156
 7861SOL    HW123826   3.896   5.061   2.130
 7861SOL    HW223827   3.987   5.107   2.242
 7862SOL     OW23828   3.840   4.780   3.600
 7862SOL    HW123829   3.762   4.744   3.641
 7862SOL    HW223830   3.911   4.721   3.628
 7863SOL     OW23831   3.805   4.050   1.892
 7863SOL    HW123832   3.720   4.031   1.851
 7863SOL    HW223833   3.835   4.129   1.847
 7864SOL     OW23834   5.147   4.580   3.257
 7864SOL    HW123835   5.097   4.641   3.203
 7864SOL    HW223836   5.236   4.583   3.222
 7865SOL     OW23837   3.783   3.878   2.161
 7865SOL    HW123838   3.770   3.956   2.107
 7865SOL    HW223839   3.868   3.844   2.135
 7866SOL     OW23840   4.902   5.057   1.981
 7866SOL    HW123841   4.812   5.026   1.982
 7866SOL    HW223842   4.928   5.058   2.073
 7867SOL     OW23843   4.349   4.555   3.302
 7867SOL    HW123844   4.406   4.631   3.287
 7867SOL    HW223845   4.409   4.480   3.302
 7868SOL     OW23846   5.207   5.512   2.846
 7868SOL    HW123847   5.229   5.579   2.782
 7868SOL    HW223848   5.292   5.482   2.880
 7869SOL     OW23849   4.449   4.280   3.548
 7869SOL    HW123850   4.486   4.340   3.613
 7869SOL    HW223851   4.461   4.193   3.586
 7870SOL     OW23852   5.198   4.916   3.489
 7870SOL    HW123853   5.186   4.932   3.583
 7870SOL    HW223854   5.290   4.937   3.473
 7871SOL     OW23855   4.093   5.465   3.430
 7871SOL    HW123856   4.011   5.512   3.413
 7871SOL    HW223857   4.066   5.382   3.469
 7872SOL     OW23858   5.386   4.603   3.116
 7872SOL    HW123859   5.383   4.518   3.072
 7872SOL    HW223860   5.376   4.667   3.046
 7873SOL     OW23861   4.939   4.042   2.319
 7873SOL    HW123862   5.002   3.970   2.314
 7873SOL    HW223863   4.968   4.093   2.395
 7874SOL     OW23864   4.313   4.453   2.537
 7874SOL    HW123865   4.352   4.540   2.524
 7874SOL    HW223866   4.247   4.446   2.468
 7875SOL     OW23867   5.481   4.087   3.515
 7875SOL    HW123868   5.467   4.104   3.422
 7875SOL    HW223869   5.407   4.032   3.540
 7876SOL     OW23870   5.474   4.656   3.372
 7876SOL    HW123871   5.462   4.750   3.385
 7876SOL    HW223872   5.454   4.642   3.279
 7877SOL     OW23873   4.588   5.088   1.907
 7877SOL    HW123874   4.551   5.115   1.991
 7877SOL    HW223875   4.603   5.170   1.861
 7878SOL     OW23876   4.388   5.506   2.798
 7878SOL    HW123877   4.370   5.598   2.780
 7878SOL    HW223878   4.483   5.499   2.793
 7879SOL     OW23879   4.594   4.697   2.715
 7879SOL    HW123880   4.643   4.623   2.752
 7879SOL    HW223881   4.554   4.740   2.791
 7880SOL     OW23882   4.801   4.713   1.951
 7880SOL    HW123883   4.779   4.764   1.873
 7880SOL    HW223884   4.874   4.658   1.924
 7881SOL     OW23885   5.568   5.277   2.703
 7881SOL    HW123886   5.489   5.266   2.650
 7881SOL    HW223887   5.558   5.215   2.775
 7882SOL     OW23888   3.943   5.017   3.709
 7882SOL    HW123889   3.902   4.941   3.667
 7882SOL    HW223890   3.892   5.031   3.789
 7883SOL     OW23891   3.817   4.954   2.529
 7883SOL    HW123892   3.822   4.908   2.613
 7883SOL    HW223893   3.884   4.912   2.475
 7884SOL     OW23894   4.410   5.133   3.494
 7884SOL    HW123895   4.331   5.091   3.528
 7884SOL    HW223896   4.407   5.222   3.532
 7885SOL     OW23897   5.533   3.904   3.098
 7885SOL    HW123898   5.542   3.809   3.110
 7885SOL    HW223899   5.545   3.917   3.004
 7886SOL     OW23900   4.157   4.158   2.382
 7886SOL    HW123901   4.188   4.088   2.325
 7886SOL    HW223902   4.103   4.114   2.447
 7887SOL     OW23903   5.421   5.208   2.951
 7887SOL    HW123904   5.342   5.189   2.901
 7887SOL    HW223905   5.425   5.140   3.018
 7888SOL     OW23906   4.127   4.272   3.129
 7888SOL    HW123907   4.051   4.252   3.185
 7888SOL    HW223908   4.095   4.258   3.040
 7889SOL     OW23909   4.557   5.303   2.536
 7889SOL    HW123910   4.533   5.369   2.471
 7889SOL    HW223911   4.482   5.243   2.538
 7890SOL     OW23912   5.152   3.955   2.979
 7890SOL    HW123913   5.175   3.873   3.023
 7890SOL    HW223914   5.101   4.003   3.044
 7891SOL     OW23915   4.717   3.732   2.977
 7891SOL    HW123916   4.683   3.664   2.919
 7891SOL    HW223917   4.805   3.702   2.999
 7892SOL     OW23918   4.499   5.058   2.184
 7892SOL    HW123919   4.473   4.966   2.192
 7892SOL    HW223920   4.581   5.064   2.234
 7893SOL     OW23921   4.343   5.281   3.149
 7893SOL    HW123922   4.343   5.363   3.198
 7893SOL    HW223923   4.431   5.275   3.113
 7894SOL     OW23924   5.083   3.774   2.037
 7894SOL    HW123925   5.117   3.705   1.981
 7894SOL    HW223926   4.993   3.747   2.057
 7895SOL     OW23927   5.019   4.188   2.539
 7895SOL    HW123928   4.968   4.268   2.542
 7895SOL    HW223929   5.014   4.153   2.628
 7896SOL     OW23930   5.307   3.917   2.746
 7896SOL    HW123931   5.252   3.944   2.820
 7896SOL    HW223932   5.308   3.993   2.688
 7897SOL     OW23933   3.767   4.788   2.170
 7897SOL    HW123934   3.860   4.780   2.152
 7897SOL    HW223935   3.739   4.699   2.191
 7898SOL     OW23936   4.614   5.387   2.198
 7898SOL    HW123937   4.538   5.371   2.142
 7898SOL    HW223938   4.586   5.458   2.256
 7899SOL     OW23939   3.947   4.339   3.846
 7899SOL    HW123940   3.864   4.335   3.894
 7899SOL    HW223941   3.933   4.407   3.781
 7900SOL     OW23942   3.948   4.009   4.717
 7900SOL    HW123943   3.976   3.974   4.801
 7900SOL    HW223944   3.859   3.976   4.705
 7901SOL     OW23945   3.723   4.110   4.362
 7901SOL    HW123946   3.641   4.135   4.406
 7901SOL    HW223947   3.700   4.033   4.310
 7902SOL     OW23948   4.293   5.024   4.910
 7902SOL    HW123949   4.208   5.029   4.867
 7902SOL    HW223950   4.310   5.112   4.942
 7903SOL     OW23951   5.298   5.239   4.433
 7903SOL    HW123952   5.254   5.215   4.514
 7903SOL    HW223953   5.228   5.243   4.368
 7904SOL     OW23954   4.858   4.423   4.418
 7904SOL    HW123955   4.905   4.505   4.405
 7904SOL    HW223956   4.810   4.434   4.500
 7905SOL     OW23957   5.506   4.320   3.948
 7905SOL    HW123958   5.477   4.316   3.857
 7905SOL    HW223959   5.464   4.245   3.990
 7906SOL     OW23960   4.466   4.860   4.772
 7906SOL    HW123961   4.401   4.899   4.831
 7906SOL    HW223962   4.507   4.935   4.729
 7907SOL     OW23963   4.601   4.483   5.549
 7907SOL    HW123964   4.589   4.552   5.614
 7907SOL    HW223965   4.622   4.529   5.468
 7908SOL     OW23966   4.409   4.719   4.368
 7908SOL    HW123967   4.476   4.713   4.436
 7908SOL    HW223968   4.341   4.775   4.405
 7909SOL     OW23969   4.438   4.873   5.544
 7909SOL    HW123970   4.486   4.950   5.576
 7909SOL    HW223971   4.359   4.909   5.505
 7910SOL     OW23972   4.056   5.139   4.791
 7910SOL    HW123973   3.981   5.099   4.746
 7910SOL    HW223974   4.100   5.191   4.723
 7911SOL     OW23975   5.182   5.227   5.087
 7911SOL    HW123976   5.237   5.305   5.096
 7911SOL    HW223977   5.114   5.238   5.152
 7912SOL     OW23978   4.176   4.114   5.198
 7912SOL    HW123979   4.252   4.057   5.209
 7912SOL    HW223980   4.101   4.060   5.220
 7913SOL     OW23981   5.327   4.164   4.470
 7913SOL    HW123982   5.256   4.182   4.409
 7913SOL    HW223983   5.327   4.239   4.530
 7914SOL     OW23984   3.943   5.441   4.192
 7914SOL    HW123985   3.965   5.516   4.248
 7914SOL    HW223986   4.018   5.433   4.132
 7915SOL     OW23987   4.861   5.067   5.419
 7915SOL    HW123988   4.903   5.060   5.505
 7915SOL    HW223989   4.809   4.987   5.411
 7916SOL     OW23990   3.956   5.172   4.263
 7916SOL    HW123991   3.937   5.265   4.263
 7916SOL    HW223992   3.897   5.136   4.330
 7917SOL     OW23993   3.992   4.815   4.614
 7917SOL    HW123994   3.989   4.727   4.651
 7917SOL    HW223995   3.935   4.867   4.670
 7918SOL     OW23996   4.322   5.518   5.149
 7918SOL    HW123997   4.242   5.499   5.198
 7918SOL    HW223998   4.349   5.605   5.178
 7919SOL     OW23999   4.300   4.711   3.868
 7919SOL    HW124000   4.349   4.753   3.797
 7919SOL    HW224001   4.342   4.743   3.948
 7920SOL     OW24002   5.319   3.853   5.187
 7920SOL    HW124003   5.346   3.933   5.142
 7920SOL    HW224004   5.297   3.881   5.276
 7921SOL     OW24005   3.841   4.381   4.285
 7921SOL    HW124006   3.814   4.292   4.307
 7921SOL    HW224007   3.833   4.429   4.367
 7922SOL     OW24008   5.568   5.476   4.053
 7922SOL    HW124009   5.638   5.452   4.114
 7922SOL    HW224010   5.584   5.568   4.033
 7923SOL     OW24011   3.767   5.314   3.843
 7923SOL    HW124012   3.747   5.222   3.863
 7923SOL    HW224013   3.739   5.361   3.921
 7924SOL     OW24014   5.414   4.643   4.370
 7924SOL    HW124015   5.495   4.599   4.346
 7924SOL    HW224016   5.391   4.695   4.293
 7925SOL     OW24017   5.375   4.826   4.154
 7925SOL    HW124018   5.461   4.826   4.113
 7925SOL    HW224019   5.382   4.891   4.225
 7926SOL     OW24020   3.850   4.469   5.307
 7926SOL    HW124021   3.940   4.500   5.310
 7926SOL    HW224022   3.796   4.548   5.310
 7927SOL     OW24023   4.341   5.116   4.459
 7927SOL    HW124024   4.297   5.031   4.467
 7927SOL    HW224025   4.325   5.143   4.369
 7928SOL     OW24026   5.008   4.959   5.144
 7928SOL    HW124027   5.038   4.890   5.084
 7928SOL    HW224028   5.068   4.954   5.219
 7929SOL     OW24029   4.546   3.729   4.241
 7929SOL    HW124030   4.586   3.812   4.215
 7929SOL    HW224031   4.452   3.747   4.245
 7930SOL     OW24032   3.911   4.684   5.005
 7930SOL    HW124033   3.998   4.646   4.990
 7930SOL    HW224034   3.854   4.636   4.945
 7931SOL     OW24035   5.255   4.725   3.924
 7931SOL    HW124036   5.186   4.667   3.957
 7931SOL    HW224037   5.298   4.758   4.003
 7932SOL     OW24038   4.906   5.539   5.351
 7932SOL    HW124039   4.912   5.600   5.278
 7932SOL    HW224040   4.925   5.453   5.312
 7933SOL     OW24041   4.070   3.973   5.558
 7933SOL    HW124042   4.109   4.057   5.582
 7933SOL    HW224043   3.976   3.984   5.576
 7934SOL     OW24044   5.192   5.143   4.669
 7934SOL    HW124045   5.126   5.160   4.736
 7934SOL    HW224046   5.178   5.052   4.643
 7935SOL     OW24047   5.375   5.482   4.300
 7935SOL    HW124048   5.358   5.447   4.212
 7935SOL    HW224049   5.359   5.409   4.359
 7936SOL     OW24050   4.318   4.443   3.997
 7936SOL    HW124051   4.321   4.528   3.953
 7936SOL    HW224052   4.254   4.455   4.067
 7937SOL     OW24053   5.003   4.093   4.659
 7937SOL    HW124054   4.914   4.059   4.667
 7937SOL    HW224055   5.056   4.038   4.717
 7938SOL     OW24056   5.302   5.398   4.035
 7938SOL    HW124057   5.394   5.422   4.027
 7938SOL    HW224058   5.273   5.381   3.946
 7939SOL     OW24059   4.515   4.342   5.169
 7939SOL    HW124060   4.490   4.315   5.257
 7939SOL    HW224061   4.482   4.271   5.113
 7940SOL     OW24062   5.116   4.198   5.402
 7940SOL    HW124063   5.120   4.243   5.487
 7940SOL    HW224064   5.172   4.121   5.412
 7941SOL     OW24065   4.673   4.608   5.311
 7941SOL    HW124066   4.728   4.541   5.272
 7941SOL    HW224067   4.624   4.646   5.238
 7942SOL     OW24068   4.720   4.132   4.955
 7942SOL    HW124069   4.630   4.148   4.983
 7942SOL    HW224070   4.710   4.091   4.869
 7943SOL     OW24071   4.778   4.422   4.147
 7943SOL    HW124072   4.797   4.416   4.241
 7943SOL    HW224073   4.694   4.377   4.136
 7944SOL     OW24074   3.811   4.548   4.502
 7944SOL    HW124075   3.892   4.539   4.553
 7944SOL    HW224076   3.767   4.623   4.539
 7945SOL     OW24077   3.848   5.598   5.309
 7945SOL    HW124078   3.853   5.575   5.401
 7945SOL    HW224079   3.764   5.562   5.279
 7946SOL     OW24080   4.627   4.072   3.919
 7946SOL    HW124081   4.662   4.137   3.858
 7946SOL    HW224082   4.646   3.988   3.878
 7947SOL     OW24083   5.426   4.293   5.555
 7947SOL    HW124084   5.392   4.367   5.505
 7947SOL    HW224085   5.454   4.230   5.488
 7948SOL     OW24086   5.106   4.866   4.263
 7948SOL    HW124087   5.185   4.856   4.211
 7948SOL    HW224088   5.053   4.928   4.214
 7949SOL     OW24089   4.275   3.897   4.624
 7949SOL    HW124090   4.277   3.929   4.714
 7949SOL    HW224091   4.273   3.977   4.570
 7950SOL     OW24092   4.722   5.169   4.191
 7950SOL    HW124093   4.693   5.245   4.140
 7950SOL    HW224094   4.697   5.189   4.281
 7951SOL     OW24095   4.078   5.539   4.597
 7951SOL    HW124096   4.123   5.455   4.602
 7951SOL    HW224097   4.146   5.604   4.615
 7952SOL     OW24098   5.525   4.773   4.598
 7952SOL    HW124099   5.474   4.754   4.520
 7952SOL    HW224100   5.461   4.781   4.668
 7953SOL     OW24101   4.950   5.265   5.238
 7953SOL    HW124102   4.938   5.193   5.300
 7953SOL    HW224103   4.882   5.251   5.172
 7954SOL     OW24104   4.039   4.688   3.980
 7954SOL    HW124105   4.122   4.709   3.938
 7954SOL    HW224106   4.014   4.602   3.944
 7955SOL     OW24107   5.206   4.475   4.444
 7955SOL    HW124108   5.204   4.436   4.531
 7955SOL    HW224109   5.285   4.530   4.444
 7956SOL     OW24110   4.196   4.994   5.462
 7956SOL    HW124111   4.169   4.998   5.370
 7956SOL    HW224112   4.113   4.989   5.511
 7957SOL     OW24113   4.850   5.502   3.952
 7957SOL    HW124114   4.773   5.464   3.994
 7957SOL    HW224115   4.874   5.438   3.885
 7958SOL     OW24116   3.926   3.992   5.228
 7958SOL    HW124117   3.847   4.044   5.236
 7958SOL    HW224118   3.904   3.907   5.265
 7959SOL     OW24119   5.352   5.107   3.816
 7959SOL    HW124120   5.311   5.192   3.801
 7959SOL    HW224121   5.284   5.043   3.794
 7960SOL     OW24122   4.186   5.461   4.042
 7960SOL    HW124123   4.232   5.516   4.106
 7960SOL    HW224124   4.255   5.424   3.987
 7961SOL     OW24125   5.124   3.831   4.168
 7961SOL    HW124126   5.118   3.807   4.076
 7961SOL    HW224127   5.218   3.838   4.184
 7962SOL     OW24128   3.980   5.514   4.951
 7962SOL    HW124129   4.029   5.442   4.991
 7962SOL    HW224130   3.972   5.488   4.859
 7963SOL     OW24131   4.664   5.424   4.619
 7963SOL    HW124132   4.744   5.377   4.641
 7963SOL    HW224133   4.624   5.373   4.549
 7964SOL     OW24134   4.120   4.418   4.196
 7964SOL    HW124135   4.137   4.325   4.211
 7964SOL    HW224136   4.026   4.429   4.215
 7965SOL     OW24137   5.249   3.948   5.447
 7965SOL    HW124138   5.261   3.968   5.540
 7965SOL    HW224139   5.181   3.881   5.445
 7966SOL     OW24140   4.359   3.851   3.830
 7966SOL    HW124141   4.395   3.770   3.795
 7966SOL    HW224142   4.277   3.864   3.782
 7967SOL     OW24143   4.486   4.002   5.480
 7967SOL    HW124144   4.568   3.952   5.476
 7967SOL    HW224145   4.441   3.969   5.557
 7968SOL     OW24146   4.598   5.247   4.920
 7968SOL    HW124147   4.581   5.209   4.833
 7968SOL    HW224148   4.668   5.193   4.956
 7969SOL     OW24149   5.061   4.313   5.157
 7969SOL    HW124150   5.093   4.283   5.242
 7969SOL    HW224151   5.099   4.401   5.148
 7970SOL     OW24152   4.543   5.111   4.672
 7970SOL    HW124153   4.628   5.101   4.630
 7970SOL    HW224154   4.481   5.120   4.600
 7971SOL     OW24155   4.654   4.234   4.622
 7971SOL    HW124156   4.628   4.225   4.531
 7971SOL    HW224157   4.683   4.146   4.648
 7972SOL     OW24158   4.278   3.787   4.224
 7972SOL    HW124159   4.197   3.785   4.274
 7972SOL    HW224160   4.271   3.866   4.169
 7973SOL     OW24161   5.152   4.926   3.762
 7973SOL    HW124162   5.181   4.851   3.814
 7973SOL    HW224163   5.066   4.948   3.799
 7974SOL     OW24164   4.005   3.767   3.917
 7974SOL    HW124165   4.050   3.832   3.864
 7974SOL    HW224166   4.075   3.711   3.952
 7975SOL     OW24167   4.666   3.973   4.179
 7975SOL    HW124168   4.640   4.011   4.095
 7975SOL    HW224169   4.761   3.990   4.185
 7976SOL     OW24170   4.804   4.410   5.179
 7976SOL    HW124171   4.739   4.340   5.184
 7976SOL    HW224172   4.888   4.365   5.175
 7977SOL     OW24173   4.941   5.298   4.520
 7977SOL    HW124174   4.955   5.363   4.450
 7977SOL    HW224175   5.012   5.315   4.582
 7978SOL     OW24176   4.198   4.879   4.448
 7978SOL    HW124177   4.132   4.857   4.514
 7978SOL    HW224178   4.152   4.867   4.364
 7979SOL     OW24179   4.986   5.516   4.337
 7979SOL    HW124180   5.035   5.578   4.283
 7979SOL    HW224181   4.917   5.568   4.378
 7980SOL     OW24182   4.748   4.256   3.750
 7980SOL    HW124183   4.703   4.338   3.730
 7980SOL    HW224184   4.813   4.279   3.817
 7981SOL     OW24185   3.809   4.278   5.116
 7981SOL    HW124186   3.901   4.277   5.090
 7981SOL    HW224187   3.804   4.347   5.182
 7982SOL     OW24188   4.281   3.952   4.897
 7982SOL    HW124189   4.323   3.881   4.945
 7982SOL    HW224190   4.189   3.949   4.924
 7983SOL     OW24191   4.590   4.181   4.362
 7983SOL    HW124192   4.546   4.237   4.298
 7983SOL    HW224193   4.612   4.102   4.312
 7984SOL     OW24194   4.744   3.779   4.470
 7984SOL    HW124195   4.683   3.775   4.396
 7984SOL    HW224196   4.719   3.705   4.525
 7985SOL     OW24197   5.164   4.883   4.581
 7985SOL    HW124198   5.092   4.820   4.582
 7985SOL    HW224199   5.187   4.891   4.488
 7986SOL     OW24200   5.190   4.335   4.688
 7986SOL    HW124201   5.131   4.259   4.693
 7986SOL    HW224202   5.246   4.326   4.765
 7987SOL     OW24203   5.563   4.533   4.109
 7987SOL    HW124204   5.622   4.485   4.168
 7987SOL    HW224205   5.540   4.470   4.041
 7988SOL     OW24206   4.212   5.146   3.875
 7988SOL    HW124207   4.138   5.116   3.927
 7988SOL    HW224208   4.209   5.094   3.795
 7989SOL     OW24209   5.404   4.989   4.365
 7989SOL    HW124210   5.498   4.987   4.380
 7989SOL    HW224211   5.377   5.078   4.387
 7990SOL     OW24212   5.116   4.297   3.794
 7990SOL    HW124213   5.055   4.275   3.864
 7990SOL    HW224214   5.202   4.270   3.827
 7991SOL     OW24215   4.252   3.991   4.045
 7991SOL    HW124216   4.299   3.941   3.978
 7991SOL    HW224217   4.224   4.071   4.001
 7992SOL     OW24218   5.471   4.967   5.281
 7992SOL    HW124219   5.558   4.929   5.273
 7992SOL    HW224220   5.486   5.056   5.313
 7993SOL     OW24221   4.777   5.077   5.055
 7993SOL    HW124222   4.701   5.046   5.105
 7993SOL    HW224223   4.852   5.035   5.097
 7994SOL     OW24224   5.333   5.353   5.383
 7994SOL    HW124225   5.325   5.387   5.294
 7994SOL    HW224226   5.414   5.302   5.382
 7995SOL     OW24227   4.861   4.937   4.825
 7995SOL    HW124228   4.800   4.974   4.889
 7995SOL    HW224229   4.832   4.972   4.741
 7996SOL     OW24230   5.345   4.819   4.799
 7996SOL    HW124231   5.339   4.882   4.871
 7996SOL    HW224232   5.271   4.839   4.743
 7997SOL     OW24233   4.643   3.815   5.115
 7997SOL    HW124234   4.666   3.798   5.023
 7997SOL    HW224235   4.722   3.855   5.152
 7998SOL     OW24236   4.708   4.840   5.447
 7998SOL    HW124237   4.617   4.856   5.472
 7998SOL    HW224238   4.704   4.760   5.393
 7999SOL     OW24239   4.436   4.788   4.096
 7999SOL    HW124240   4.421   4.766   4.188
 7999SOL    HW224241   4.511   4.734   4.071
 8000SOL     OW24242   4.146   4.544   4.977
 8000SOL    HW124243   4.214   4.554   5.044
 8000SOL    HW224244   4.112   4.456   4.990
 8001SOL     OW24245   4.987   4.098   5.006
 8001SOL    HW124246   5.019   4.176   5.051
 8001SOL    HW224247   4.896   4.118   4.984
 8002SOL     OW24248   3.800   5.298   5.082
 8002SOL    HW124249   3.772   5.369   5.025
 8002SOL    HW224250   3.895   5.296   5.074
 8003SOL     OW24251   4.057   4.847   4.212
 8003SOL    HW124252   4.058   4.921   4.151
 8003SOL    HW224253   4.058   4.770   4.156
 8004SOL     OW24254   4.269   4.254   4.584
 8004SOL    HW124255   4.283   4.312   4.509
 8004SOL    HW224256   4.337   4.279   4.647
 8005SOL     OW24257   4.971   5.074   4.115
 8005SOL    HW124258   5.027   5.145   4.148
 8005SOL    HW224259   4.883   5.096   4.148
 8006SOL     OW24260   5.016   5.186   4.872
 8006SOL    HW124261   5.071   5.191   4.951
 8006SOL    HW224262   4.961   5.109   4.887
 8007SOL     OW24263   5.301   4.343   4.209
 8007SOL    HW124264   5.251   4.388   4.277
 8007SOL    HW224265   5.344   4.413   4.161
 8008SOL     OW24266   4.069   5.255   5.032
 8008SOL    HW124267   4.059   5.209   4.949
 8008SOL    HW224268   4.164   5.266   5.042
 8009SOL     OW24269   4.143   4.470   5.329
 8009SOL    HW124270   4.206   4.512   5.271
 8009SOL    HW224271   4.181   4.384   5.347
 8010SOL     OW24272   5.335   4.505   5.412
 8010SOL    HW124273   5.249   4.547   5.406
 8010SOL    HW224274   5.387   4.547   5.343
 8011SOL     OW24275   4.720   3.859   5.477
 8011SOL    HW124276   4.778   3.932   5.457
 8011SOL    HW224277   4.769   3.781   5.453
 8012SOL     OW24278   4.220   3.758   5.476
 8012SOL    HW124279   4.172   3.706   5.412
 8012SOL    HW224280   4.165   3.835   5.492
 8013SOL     OW24281   4.310   4.598   4.757
 8013SOL    HW124282   4.344   4.687   4.760
 8013SOL    HW224283   4.253   4.592   4.834
 8014SOL     OW24284   5.067   4.582   4.742
 8014SOL    HW124285   4.980   4.565   4.706
 8014SOL    HW224286   5.115   4.500   4.731
 8015SOL     OW24287   4.923   4.250   3.985
 8015SOL    HW124288   4.931   4.172   4.040
 8015SOL    HW224289   4.881   4.315   4.041
 8016SOL     OW24290   4.019   3.920   4.971
 8016SOL    HW124291   3.983   3.951   5.054
 8016SOL    HW224292   4.001   3.826   4.971
 8017SOL     OW24293   3.771   5.036   4.997
 8017SOL    HW124294   3.802   4.980   5.067
 8017SOL    HW224295   3.775   5.125   5.033
 8018SOL     OW24296   4.442   4.352   4.775
 8018SOL    HW124297   4.520   4.341   4.720
 8018SOL    HW224298   4.413   4.442   4.758
 8019SOL     OW24299   5.465   4.684   5.584
 8019SOL    HW124300   5.422   4.615   5.533
 8019SOL    HW224301   5.404   4.702   5.655
 8020SOL     OW24302   4.032   3.779   4.347
 8020SOL    HW124303   4.007   3.870   4.365
 8020SOL    HW224304   4.040   3.739   4.434
 8021SOL     OW24305   5.348   4.105   4.081
 8021SOL    HW124306   5.376   4.040   4.145
 8021SOL    HW224307   5.323   4.181   4.135
 8022SOL     OW24308   4.754   4.482   4.681
 8022SOL    HW124309   4.743   4.499   4.775
 8022SOL    HW224310   4.727   4.391   4.670
 8023SOL     OW24311   4.704   5.290   5.447
 8023SOL    HW124312   4.688   5.334   5.363
 8023SOL    HW224313   4.748   5.208   5.424
 8024SOL     OW24314   5.573   5.224   5.327
 8024SOL    HW124315   5.596   5.252   5.239
 8024SOL    HW224316   5.653   5.237   5.379
 8025SOL     OW24317   4.075   4.642   5.534
 8025SOL    HW124318   4.155   4.660   5.583
 8025SOL    HW224319   4.102   4.579   5.467
 8026SOL     OW24320   5.251   3.995   3.849
 8026SOL    HW124321   5.188   3.929   3.879
 8026SOL    HW224322   5.286   4.034   3.929
 8027SOL     OW24323   5.009   4.548   3.751
 8027SOL    HW124324   5.051   4.462   3.756
 8027SOL    HW224325   5.042   4.586   3.669
 8028SOL     OW24326   4.794   5.065   4.582
 8028SOL    HW124327   4.800   4.993   4.519
 8028SOL    HW224328   4.851   5.133   4.546
 8029SOL     OW24329   4.032   4.534   4.669
 8029SOL    HW124330   4.126   4.553   4.663
 8029SOL    HW224331   4.029   4.443   4.700
 8030SOL     OW24332   4.048   4.256   4.736
 8030SOL    HW124333   4.013   4.168   4.724
 8030SOL    HW224334   4.126   4.259   4.680
 8031SOL     OW24335   4.859   4.095   5.411
 8031SOL    HW124336   4.810   4.149   5.473
 8031SOL    HW224337   4.945   4.136   5.406
 8032SOL     OW24338   4.885   3.920   5.196
 8032SOL    HW124339   4.873   3.983   5.268
 8032SOL    HW224340   4.927   3.971   5.127
 8033SOL     OW24341   3.739   5.038   3.912
 8033SOL    HW124342   3.650   5.057   3.880
 8033SOL    HW224343   3.732   4.951   3.951
 8034SOL     OW24344   3.814   5.504   4.667
 8034SOL    HW124345   3.784   5.427   4.619
 8034SOL    HW224346   3.903   5.519   4.635
 8035SOL     OW24347   4.214   5.298   4.628
 8035SOL    HW124348   4.283   5.360   4.652
 8035SOL    HW224349   4.257   5.236   4.569
 8036SOL     OW24350   4.694   4.509   4.946
 8036SOL    HW124351   4.754   4.492   5.018
 8036SOL    HW224352   4.611   4.471   4.975
 8037SOL     OW24353   3.761   4.276   4.841
 8037SOL    HW124354   3.842   4.269   4.790
 8037SOL    HW224355   3.790   4.275   4.932
 8038SOL     OW24356   3.915   4.248   5.457
 8038SOL    HW124357   3.969   4.203   5.392
 8038SOL    HW224358   3.880   4.324   5.411
 8039SOL     OW24359   5.106   4.655   5.380
 8039SOL    HW124360   5.127   4.749   5.376
 8039SOL    HW224361   5.102   4.628   5.289
 8040SOL     OW24362   4.541   4.294   4.091
 8040SOL    HW124363   4.544   4.220   4.031
 8040SOL    HW224364   4.467   4.347   4.061
 8041SOL     OW24365   5.363   4.325   4.901
 8041SOL    HW124366   5.354   4.267   4.977
 8041SOL    HW224367   5.452   4.307   4.868
 8042SOL     OW24368   3.960   5.272   5.446
 8042SOL    HW124369   3.939   5.335   5.515
 8042SOL    HW224370   3.969   5.188   5.492
 8043SOL     OW24371   4.441   4.167   4.974
 8043SOL    HW124372   4.381   4.097   4.951
 8043SOL    HW224373   4.431   4.232   4.904
 8044SOL     OW24374   4.643   5.402   5.197
 8044SOL    HW124375   4.620   5.362   5.113
 8044SOL    HW224376   4.639   5.496   5.180
 8045SOL     OW24377   4.189   4.215   3.905
 8045SOL    HW124378   4.244   4.289   3.930
 8045SOL    HW224379   4.103   4.254   3.890
 8046SOL     OW24380   3.863   4.868   5.199
 8046SOL    HW124381   3.866   4.822   5.283
 8046SOL    HW224382   3.881   4.800   5.133
 8047SOL     OW24383   5.043   4.766   4.942
 8047SOL    HW124384   5.063   4.703   4.873
 8047SOL    HW224385   4.978   4.824   4.902
 8048SOL     OW24386   5.042   4.580   4.026
 8048SOL    HW124387   4.968   4.550   4.079
 8048SOL    HW224388   5.014   4.567   3.935
 8049SOL     OW24389   5.505   5.458   4.883
 8049SOL    HW124390   5.564   5.485   4.813
 8049SOL    HW224391   5.477   5.370   4.859
 8050SOL     OW24392   4.963   5.456   4.827
 8050SOL    HW124393   5.046   5.481   4.787
 8050SOL    HW224394   4.974   5.364   4.848
 8051SOL     OW24395   3.813   4.988   4.734
 8051SOL    HW124396   3.794   5.004   4.826
 8051SOL    HW224397   3.741   4.933   4.703
 8052SOL     OW24398   4.404   5.397   5.465
 8052SOL    HW124399   4.345   5.471   5.455
 8052SOL    HW224400   4.475   5.414   5.403
 8053SOL     OW24401   5.447   3.883   4.227
 8053SOL    HW124402   5.516   3.866   4.164
 8053SOL    HW224403   5.430   3.797   4.267
 8054SOL     OW24404   5.118   5.292   4.217
 8054SOL    HW124405   5.175   5.326   4.148
 8054SOL    HW224406   5.066   5.367   4.245
 8055SOL     OW24407   3.865   5.520   5.567
 8055SOL    HW124408   3.815   5.453   5.613
 8055SOL    HW224409   3.912   5.567   5.636
 8056SOL     OW24410   5.002   4.653   4.394
 8056SOL    HW124411   5.076   4.593   4.404
 8056SOL    HW224412   5.037   4.724   4.340
 8057SOL     OW24413   4.526   5.002   5.146
 8057SOL    HW124414   4.499   5.043   5.228
 8057SOL    HW224415   4.455   5.020   5.085
 8058SOL     OW24416   4.391   5.351   3.880
 8058SOL    HW124417   4.405   5.366   3.787
 8058SOL    HW224418   4.336   5.273   3.885
 8059SOL     OW24419   5.342   5.452   5.116
 8059SOL    HW124420   5.397   5.456   5.038
 8059SOL    HW224421   5.328   5.544   5.140
 8060SOL     OW24422   5.567   3.893   4.689
 8060SOL    HW124423   5.596   3.805   4.665
 8060SOL    HW224424   5.480   3.901   4.650
 8061SOL     OW24425   3.979   4.032   4.437
 8061SOL    HW124426   3.894   4.068   4.414
 8061SOL    HW224427   3.979   4.030   4.532
 8062SOL     OW24428   4.932   5.324   3.758
 8062SOL    HW124429   4.921   5.232   3.784
 8062SOL    HW224430   4.866   5.338   3.690
 8063SOL     OW24431   4.547   4.731   5.100
 8063SOL    HW124432   4.590   4.725   5.015
 8063SOL    HW224433   4.543   4.825   5.118
 8064SOL     OW24434   4.642   4.635   4.016
 8064SOL    HW124435   4.701   4.668   3.949
 8064SOL    HW224436   4.692   4.567   4.061
 8065SOL     OW24437   5.212   5.355   3.770
 8065SOL    HW124438   5.118   5.343   3.755
 8065SOL    HW224439   5.250   5.360   3.683
 8066SOL     OW24440   4.090   5.030   5.217
 8066SOL    HW124441   4.078   5.106   5.160
 8066SOL    HW224442   4.013   4.975   5.202
 8067SOL     OW24443   5.331   5.009   5.003
 8067SOL    HW124444   5.389   4.991   5.077
 8067SOL    HW224445   5.271   5.076   5.036
 8068SOL     OW24446   4.788   4.835   4.437
 8068SOL    HW124447   4.715   4.786   4.473
 8068SOL    HW224448   4.852   4.769   4.411
 8069SOL     OW24449   4.750   3.967   4.689
 8069SOL    HW124450   4.747   3.921   4.606
 8069SOL    HW224451   4.744   3.898   4.755
 8070SOL     OW24452   4.330   5.212   4.204
 8070SOL    HW124453   4.381   5.162   4.140
 8070SOL    HW224454   4.253   5.242   4.155
 8071SOL     OW24455   5.452   4.115   5.104
 8071SOL    HW124456   5.525   4.178   5.104
 8071SOL    HW224457   5.482   4.045   5.046
 8072SOL     OW24458   3.994   5.062   4.024
 8072SOL    HW124459   3.904   5.060   3.991
 8072SOL    HW224460   3.987   5.106   4.109
 8073SOL     OW24461   3.839   4.761   5.451
 8073SOL    HW124462   3.763   4.732   5.501
 8073SOL    HW224463   3.913   4.716   5.492
 8074SOL     OW24464   4.401   3.917   5.223
 8074SOL    HW124465   4.486   3.895   5.184
 8074SOL    HW224466   4.423   3.950   5.310
 8075SOL     OW24467   3.806   4.059   3.811
 8075SOL    HW124468   3.739   4.040   3.745
 8075SOL    HW224469   3.858   4.130   3.773
 8076SOL     OW24470   5.148   4.580   5.120
 8076SOL    HW124471   5.098   4.641   5.065
 8076SOL    HW224472   5.236   4.583   5.084
 8077SOL     OW24473   3.784   3.881   4.029
 8077SOL    HW124474   3.771   3.952   3.967
 8077SOL    HW224475   3.868   3.843   4.005
 8078SOL     OW24476   4.902   5.057   3.842
 8078SOL    HW124477   4.811   5.027   3.843
 8078SOL    HW224478   4.928   5.058   3.934
 8079SOL     OW24479   4.345   4.555   5.160
 8079SOL    HW124480   4.403   4.630   5.146
 8079SOL    HW224481   4.405   4.480   5.166
 8080SOL     OW24482   5.207   5.512   4.708
 8080SOL    HW124483   5.230   5.579   4.644
 8080SOL    HW224484   5.292   5.482   4.742
 8081SOL     OW24485   4.443   4.281   5.422
 8081SOL    HW124486   4.487   4.340   5.483
 8081SOL    HW224487   4.459   4.194   5.456
 8082SOL     OW24488   5.197   4.916   5.351
 8082SOL    HW124489   5.186   4.932   5.445
 8082SOL    HW224490   5.289   4.937   5.335
 8083SOL     OW24491   4.092   5.465   5.291
 8083SOL    HW124492   4.010   5.512   5.276
 8083SOL    HW224493   4.066   5.383   5.331
 8084SOL     OW24494   5.386   4.603   4.978
 8084SOL    HW124495   5.383   4.518   4.934
 8084SOL    HW224496   5.376   4.667   4.908
 8085SOL     OW24497   4.939   4.043   4.180
 8085SOL    HW124498   5.001   3.970   4.176
 8085SOL    HW224499   4.968   4.094   4.256
 8086SOL     OW24500   4.310   4.456   4.398
 8086SOL    HW124501   4.350   4.542   4.384
 8086SOL    HW224502   4.246   4.448   4.327
 8087SOL     OW24503   5.479   4.087   5.377
 8087SOL    HW124504   5.465   4.104   5.284
 8087SOL    HW224505   5.406   4.031   5.402
 8088SOL     OW24506   5.473   4.656   5.234
 8088SOL    HW124507   5.462   4.750   5.247
 8088SOL    HW224508   5.454   4.642   5.141
 8089SOL     OW24509   4.589   5.088   3.770
 8089SOL    HW124510   4.551   5.115   3.854
 8089SOL    HW224511   4.603   5.170   3.723
 8090SOL     OW24512   4.388   5.505   4.660
 8090SOL    HW124513   4.370   5.598   4.642
 8090SOL    HW224514   4.483   5.498   4.655
 8091SOL     OW24515   4.594   4.696   4.578
 8091SOL    HW124516   4.644   4.623   4.615
 8091SOL    HW224517   4.554   4.739   4.653
 8092SOL     OW24518   4.802   4.714   3.814
 8092SOL    HW124519   4.780   4.765   3.736
 8092SOL    HW224520   4.875   4.658   3.786
 8093SOL     OW24521   5.568   5.277   4.565
 8093SOL    HW124522   5.489   5.265   4.513
 8093SOL    HW224523   5.558   5.215   4.637
 8094SOL     OW24524   3.949   5.021   5.575
 8094SOL    HW124525   3.892   4.952   5.540
 8094SOL    HW224526   3.919   5.033   5.665
 8095SOL     OW24527   3.814   4.951   4.389
 8095SOL    HW124528   3.831   4.908   4.473
 8095SOL    HW224529   3.881   4.915   4.330
 8096SOL     OW24530   4.409   5.134   5.355
 8096SOL    HW124531   4.332   5.091   5.390
 8096SOL    HW224532   4.408   5.222   5.393
 8097SOL     OW24533   5.535   3.905   4.959
 8097SOL    HW124534   5.541   3.810   4.972
 8097SOL    HW224535   5.547   3.917   4.865
 8098SOL     OW24536   4.151   4.158   4.252
 8098SOL    HW124537   4.184   4.090   4.193
 8098SOL    HW224538   4.101   4.111   4.318
 8099SOL     OW24539   5.421   5.208   4.813
 8099SOL    HW124540   5.342   5.189   4.763
 8099SOL    HW224541   5.425   5.140   4.880
 8100SOL     OW24542   4.061   4.285   5.017
 8100SOL    HW124543   4.114   4.227   5.071
 8100SOL    HW224544   4.077   4.256   4.927
 8101SOL     OW24545   4.557   5.303   4.398
 8101SOL    HW124546   4.534   5.370   4.333
 8101SOL    HW224547   4.482   5.244   4.399
 8102SOL     OW24548   5.152   3.954   4.841
 8102SOL    HW124549   5.172   3.871   4.884
 8102SOL    HW224550   5.102   4.004   4.906
 8103SOL     OW24551   4.733   3.741   4.857
 8103SOL    HW124552   4.678   3.675   4.814
 8103SOL    HW224553   4.820   3.701   4.859
 8104SOL     OW24554   4.499   5.058   4.046
 8104SOL    HW124555   4.473   4.967   4.055
 8104SOL    HW224556   4.581   5.065   4.096
 8105SOL     OW24557   4.343   5.281   5.011
 8105SOL    HW124558   4.343   5.364   5.060
 8105SOL    HW224559   4.432   5.274   4.975
 8106SOL     OW24560   5.085   3.775   3.899
 8106SOL    HW124561   5.122   3.701   3.850
 8106SOL    HW224562   4.995   3.748   3.918
 8107SOL     OW24563   5.019   4.188   4.400
 8107SOL    HW124564   4.968   4.268   4.404
 8107SOL    HW224565   5.015   4.153   4.489
 8108SOL     OW24566   5.307   3.917   4.609
 8108SOL    HW124567   5.253   3.943   4.683
 8108SOL    HW224568   5.308   3.993   4.551
 8109SOL     OW24569   3.765   4.788   4.033
 8109SOL    HW124570   3.859   4.781   4.016
 8109SOL    HW224571   3.738   4.698   4.053
 8110SOL     OW24572   4.614   5.387   4.060
 8110SOL    HW124573   4.538   5.371   4.004
 8110SOL    HW224574   4.586   5.458   4.117
 8111SOL     OW24575   3.944   4.348   5.718
 8111SOL    HW124576   3.855   4.342   5.754
 8111SOL    HW224577   3.934   4.326   5.625
 8112SOL     OW24578   3.945   4.016   6.581
 8112SOL    HW124579   3.978   3.975   6.661
 8112SOL    HW224580   3.858   3.978   6.569
 8113SOL     OW24581   3.721   4.110   6.226
 8113SOL    HW124582   3.640   4.138   6.269
 8113SOL    HW224583   3.696   4.032   6.176
 8114SOL     OW24584   4.286   5.008   6.756
 8114SOL    HW124585   4.202   5.030   6.715
 8114SOL    HW224586   4.310   5.085   6.807
 8115SOL     OW24587   5.297   5.239   6.295
 8115SOL    HW124588   5.251   5.217   6.376
 8115SOL    HW224589   5.228   5.243   6.229
 8116SOL     OW24590   4.856   4.423   6.281
 8116SOL    HW124591   4.904   4.505   6.270
 8116SOL    HW224592   4.807   4.433   6.362
 8117SOL     OW24593   5.507   4.320   5.810
 8117SOL    HW124594   5.478   4.315   5.719
 8117SOL    HW224595   5.464   4.245   5.852
 8118SOL     OW24596   4.486   4.864   6.635
 8118SOL    HW124597   4.415   4.892   6.693
 8118SOL    HW224598   4.512   4.944   6.588
 8119SOL     OW24599   4.410   4.719   6.229
 8119SOL    HW124600   4.476   4.713   6.298
 8119SOL    HW224601   4.341   4.775   6.267
 8120SOL     OW24602   4.057   5.134   6.653
 8120SOL    HW124603   3.977   5.102   6.610
 8120SOL    HW224604   4.097   5.192   6.588
 8121SOL     OW24605   5.327   4.167   6.332
 8121SOL    HW124606   5.255   4.182   6.270
 8121SOL    HW224607   5.319   4.238   6.395
 8122SOL     OW24608   3.943   5.441   6.053
 8122SOL    HW124609   3.965   5.515   6.109
 8122SOL    HW224610   4.018   5.433   5.995
 8123SOL     OW24611   3.957   5.170   6.123
 8123SOL    HW124612   3.937   5.264   6.125
 8123SOL    HW224613   3.900   5.132   6.190
 8124SOL     OW24614   3.992   4.816   6.478
 8124SOL    HW124615   3.988   4.729   6.517
 8124SOL    HW224616   3.937   4.870   6.535
 8125SOL     OW24617   4.342   5.530   6.980
 8125SOL    HW124618   4.256   5.506   0.016
 8125SOL    HW224619   4.360   5.617   0.015
 8126SOL     OW24620   4.300   4.710   5.727
 8126SOL    HW124621   4.350   4.753   5.658
 8126SOL    HW224622   4.340   4.741   5.809
 8127SOL     OW24623   3.843   4.381   6.148
 8127SOL    HW124624   3.812   4.293   6.169
 8127SOL    HW224625   3.835   4.429   6.230
 8128SOL     OW24626   5.567   5.476   5.915
 8128SOL    HW124627   5.637   5.451   5.976
 8128SOL    HW224628   5.584   5.568   5.896
 8129SOL     OW24629   3.764   5.313   5.705
 8129SOL    HW124630   3.746   5.221   5.725
 8129SOL    HW224631   3.738   5.361   5.784
 8130SOL     OW24632   5.415   4.643   6.230
 8130SOL    HW124633   5.495   4.598   6.205
 8130SOL    HW224634   5.392   4.695   6.154
 8131SOL     OW24635   5.375   4.827   6.016
 8131SOL    HW124636   5.462   4.827   5.975
 8131SOL    HW224637   5.382   4.891   6.087
 8132SOL     OW24638   4.340   5.116   6.321
 8132SOL    HW124639   4.295   5.032   6.329
 8132SOL    HW224640   4.323   5.143   6.231
 8133SOL     OW24641   4.546   3.729   6.100
 8133SOL    HW124642   4.586   3.813   6.076
 8133SOL    HW224643   4.452   3.748   6.104
 8134SOL     OW24644   3.915   4.703   6.850
 8134SOL    HW124645   3.994   4.652   6.832
 8134SOL    HW224646   3.843   4.648   6.820
 8135SOL     OW24647   5.255   4.725   5.786
 8135SOL    HW124648   5.186   4.668   5.819
 8135SOL    HW224649   5.299   4.758   5.865
 8136SOL     OW24650   5.176   5.148   6.528
 8136SOL    HW124651   5.120   5.157   6.605
 8136SOL    HW224652   5.169   5.055   6.505
 8137SOL     OW24653   5.373   5.484   6.161
 8137SOL    HW124654   5.357   5.447   6.075
 8137SOL    HW224655   5.360   5.411   6.222
 8138SOL     OW24656   4.318   4.438   5.857
 8138SOL    HW124657   4.321   4.523   5.813
 8138SOL    HW224658   4.253   4.450   5.926
 8139SOL     OW24659   4.999   4.090   6.518
 8139SOL    HW124660   4.911   4.055   6.528
 8139SOL    HW224661   5.052   4.039   6.579
 8140SOL     OW24662   5.302   5.397   5.897
 8140SOL    HW124663   5.394   5.421   5.889
 8140SOL    HW224664   5.273   5.381   5.807
 8141SOL     OW24665   4.522   4.328   0.055
 8141SOL    HW124666   4.456   4.370   0.110
 8141SOL    HW224667   4.472   4.278   6.991
 8142SOL     OW24668   4.722   4.118   6.799
 8142SOL    HW124669   4.646   4.163   6.835
 8142SOL    HW224670   4.689   4.071   6.723
 8143SOL     OW24671   4.779   4.422   6.010
 8143SOL    HW124672   4.798   4.416   6.103
 8143SOL    HW224673   4.695   4.377   5.999
 8144SOL     OW24674   3.814   4.545   6.366
 8144SOL    HW124675   3.894   4.540   6.417
 8144SOL    HW224676   3.768   4.622   6.401
 8145SOL     OW24677   3.879   5.575   0.139
 8145SOL    HW124678   3.833   5.502   0.180
 8145SOL    HW224679   3.826   5.597   0.062
 8146SOL     OW24680   4.623   4.075   5.783
 8146SOL    HW124681   4.664   4.138   5.723
 8146SOL    HW224682   4.630   3.991   5.737
 8147SOL     OW24683   5.106   4.866   6.124
 8147SOL    HW124684   5.186   4.855   6.073
 8147SOL    HW224685   5.053   4.928   6.074
 8148SOL     OW24686   4.277   3.898   6.484
 8148SOL    HW124687   4.281   3.931   6.574
 8148SOL    HW224688   4.276   3.977   6.429
 8149SOL     OW24689   4.722   5.169   6.053
 8149SOL    HW124690   4.693   5.245   6.002
 8149SOL    HW224691   4.696   5.190   6.143
 8150SOL     OW24692   4.077   5.540   6.454
 8150SOL    HW124693   4.118   5.454   6.465
 8150SOL    HW224694   4.146   5.602   6.477
 8151SOL     OW24695   5.528   4.773   6.455
 8151SOL    HW124696   5.477   4.753   6.377
 8151SOL    HW224697   5.464   4.774   6.526
 8152SOL     OW24698   4.036   4.685   5.842
 8152SOL    HW124699   4.119   4.704   5.798
 8152SOL    HW224700   4.008   4.601   5.805
 8153SOL     OW24701   5.205   4.476   6.303
 8153SOL    HW124702   5.203   4.434   6.389
 8153SOL    HW224703   5.284   4.530   6.305
 8154SOL     OW24704   4.850   5.502   5.813
 8154SOL    HW124705   4.773   5.464   5.856
 8154SOL    HW224706   4.874   5.438   5.746
 8155SOL     OW24707   5.352   5.106   5.678
 8155SOL    HW124708   5.311   5.192   5.663
 8155SOL    HW224709   5.284   5.043   5.656
 8156SOL     OW24710   4.186   5.461   5.904
 8156SOL    HW124711   4.232   5.516   5.968
 8156SOL    HW224712   4.255   5.425   5.849
 8157SOL     OW24713   5.123   3.831   6.029
 8157SOL    HW124714   5.117   3.805   5.937
 8157SOL    HW224715   5.218   3.835   6.046
 8158SOL     OW24716   3.996   5.518   6.819
 8158SOL    HW124717   4.043   5.460   6.879
 8158SOL    HW224718   3.944   5.458   6.765
 8159SOL     OW24719   4.666   5.421   6.479
 8159SOL    HW124720   4.748   5.375   6.496
 8159SOL    HW224721   4.624   5.372   6.409
 8160SOL     OW24722   4.121   4.417   6.058
 8160SOL    HW124723   4.137   4.324   6.072
 8160SOL    HW224724   4.027   4.429   6.075
 8161SOL     OW24725   4.372   3.841   5.687
 8161SOL    HW124726   4.427   3.766   5.708
 8161SOL    HW224727   4.317   3.810   5.615
 8162SOL     OW24728   4.593   5.243   6.764
 8162SOL    HW124729   4.577   5.210   6.675
 8162SOL    HW224730   4.631   5.169   6.811
 8163SOL     OW24731   4.542   5.111   6.524
 8163SOL    HW124732   4.627   5.101   6.481
 8163SOL    HW224733   4.479   5.118   6.453
 8164SOL     OW24734   4.654   4.235   6.484
 8164SOL    HW124735   4.628   4.225   6.392
 8164SOL    HW224736   4.687   4.148   6.509
 8165SOL     OW24737   4.279   3.787   6.080
 8165SOL    HW124738   4.199   3.787   6.134
 8165SOL    HW224739   4.269   3.864   6.024
 8166SOL     OW24740   5.152   4.925   5.624
 8166SOL    HW124741   5.182   4.851   5.676
 8166SOL    HW224742   5.067   4.948   5.661
 8167SOL     OW24743   4.013   3.772   5.772
 8167SOL    HW124744   4.070   3.837   5.732
 8167SOL    HW224745   4.072   3.711   5.815
 8168SOL     OW24746   4.667   3.974   6.041
 8168SOL    HW124747   4.643   4.012   5.956
 8168SOL    HW224748   4.762   3.989   6.048
 8169SOL     OW24749   4.939   5.300   6.383
 8169SOL    HW124750   4.954   5.365   6.315
 8169SOL    HW224751   5.017   5.303   6.437
 8170SOL     OW24752   4.197   4.878   6.311
 8170SOL    HW124753   4.131   4.858   6.378
 8170SOL    HW224754   4.151   4.866   6.228
 8171SOL     OW24755   4.986   5.515   6.200
 8171SOL    HW124756   5.035   5.578   6.146
 8171SOL    HW224757   4.916   5.567   6.239
 8172SOL     OW24758   4.749   4.256   5.613
 8172SOL    HW124759   4.705   4.339   5.594
 8172SOL    HW224760   4.813   4.277   5.680
 8173SOL     OW24761   4.287   3.951   6.757
 8173SOL    HW124762   4.327   3.871   6.791
 8173SOL    HW224763   4.196   3.947   6.785
 8174SOL     OW24764   4.589   4.182   6.223
 8174SOL    HW124765   4.548   4.238   6.157
 8174SOL    HW224766   4.613   4.102   6.175
 8175SOL     OW24767   4.744   3.774   6.326
 8175SOL    HW124768   4.683   3.768   6.253
 8175SOL    HW224769   4.720   3.702   6.384
 8176SOL     OW24770   5.159   4.883   6.441
 8176SOL    HW124771   5.094   4.812   6.441
 8176SOL    HW224772   5.183   4.893   6.349
 8177SOL     OW24773   5.190   4.334   6.545
 8177SOL    HW124774   5.132   4.259   6.556
 8177SOL    HW224775   5.249   4.329   6.621
 8178SOL     OW24776   5.563   4.533   5.971
 8178SOL    HW124777   5.622   4.485   6.030
 8178SOL    HW224778   5.540   4.470   5.903
 8179SOL     OW24779   4.213   5.147   5.737
 8179SOL    HW124780   4.137   5.118   5.788
 8179SOL    HW224781   4.210   5.094   5.658
 8180SOL     OW24782   5.403   4.989   6.227
 8180SOL    HW124783   5.498   4.987   6.243
 8180SOL    HW224784   5.377   5.078   6.250
 8181SOL     OW24785   5.117   4.297   5.657
 8181SOL    HW124786   5.055   4.275   5.727
 8181SOL    HW224787   5.202   4.268   5.689
 8182SOL     OW24788   4.249   3.986   5.895
 8182SOL    HW124789   4.301   3.942   5.827
 8182SOL    HW224790   4.222   4.068   5.855
 8183SOL     OW24791   5.484   4.896   0.163
 8183SOL    HW124792   5.577   4.893   0.141
 8183SOL    HW224793   5.457   4.985   0.139
 8184SOL     OW24794   4.839   4.962   6.693
 8184SOL    HW124795   4.760   4.913   6.714
 8184SOL    HW224796   4.827   4.989   6.602
 8185SOL     OW24797   5.339   4.805   6.648
 8185SOL    HW124798   5.337   4.876   6.712
 8185SOL    HW224799   5.267   4.825   6.588
 8186SOL     OW24800   4.435   4.787   5.957
 8186SOL    HW124801   4.420   4.766   6.049
 8186SOL    HW224802   4.510   4.733   5.932
 8187SOL     OW24803   4.149   4.540   6.849
 8187SOL    HW124804   4.198   4.562   6.929
 8187SOL    HW224805   4.116   4.452   6.865
 8188SOL     OW24806   4.990   4.115   6.856
 8188SOL    HW124807   5.015   4.188   6.912
 8188SOL    HW224808   4.899   4.133   6.832
 8189SOL     OW24809   3.815   5.290   6.862
 8189SOL    HW124810   3.755   5.338   6.920
 8189SOL    HW224811   3.894   5.278   6.915
 8190SOL     OW24812   4.057   4.845   6.075
 8190SOL    HW124813   4.059   4.919   6.014
 8190SOL    HW224814   4.056   4.768   6.019
 8191SOL     OW24815   4.270   4.255   6.445
 8191SOL    HW124816   4.283   4.314   6.370
 8191SOL    HW224817   4.339   4.279   6.506
 8192SOL     OW24818   4.971   5.075   5.977
 8192SOL    HW124819   5.027   5.145   6.009
 8192SOL    HW224820   4.883   5.096   6.010
 8193SOL     OW24821   5.011   5.169   6.749
 8193SOL    HW124822   5.047   5.146   6.835
 8193SOL    HW224823   4.946   5.101   6.731
 8194SOL     OW24824   5.300   4.344   6.069
 8194SOL    HW124825   5.251   4.387   6.139
 8194SOL    HW224826   5.344   4.415   6.022
 8195SOL     OW24827   4.084   5.220   6.908
 8195SOL    HW124828   4.060   5.183   6.823
 8195SOL    HW224829   4.175   5.248   6.896
 8196SOL     OW24830   4.309   4.596   6.624
 8196SOL    HW124831   4.339   4.686   6.624
 8196SOL    HW224832   4.253   4.589   6.702
 8197SOL     OW24833   5.062   4.584   6.591
 8197SOL    HW124834   4.977   4.559   6.556
 8197SOL    HW224835   5.115   4.504   6.585
 8198SOL     OW24836   4.922   4.250   5.846
 8198SOL    HW124837   4.931   4.172   5.901
 8198SOL    HW224838   4.880   4.315   5.903
 8199SOL     OW24839   4.028   3.924   6.834
 8199SOL    HW124840   3.985   3.946   6.917
 8199SOL    HW224841   4.016   3.829   6.826
 8200SOL     OW24842   3.745   5.026   6.868
 8200SOL    HW124843   3.801   4.985   6.934
 8200SOL    HW224844   3.774   5.117   6.865
 8201SOL     OW24845   4.444   4.349   6.637
 8201SOL    HW124846   4.522   4.336   6.583
 8201SOL    HW224847   4.418   4.439   6.621
 8202SOL     OW24848   4.035   3.786   6.209
 8202SOL    HW124849   4.009   3.875   6.230
 8202SOL    HW224850   4.042   3.742   6.293
 8203SOL     OW24851   5.349   4.106   5.943
 8203SOL    HW124852   5.376   4.039   6.006
 8203SOL    HW224853   5.323   4.181   5.996
 8204SOL     OW24854   4.751   4.484   6.551
 8204SOL    HW124855   4.743   4.499   6.645
 8204SOL    HW224856   4.727   4.392   6.539
 8205SOL     OW24857   5.249   3.996   5.711
 8205SOL    HW124858   5.187   3.929   5.741
 8205SOL    HW224859   5.285   4.033   5.791
 8206SOL     OW24860   5.009   4.548   5.613
 8206SOL    HW124861   5.051   4.462   5.618
 8206SOL    HW224862   5.042   4.586   5.532
 8207SOL     OW24863   4.796   5.064   6.440
 8207SOL    HW124864   4.802   4.992   6.377
 8207SOL    HW224865   4.851   5.133   6.403
 8208SOL     OW24866   4.035   4.533   6.532
 8208SOL    HW124867   4.128   4.554   6.525
 8208SOL    HW224868   4.033   4.442   6.561
 8209SOL     OW24869   4.057   4.257   6.605
 8209SOL    HW124870   4.018   4.171   6.590
 8209SOL    HW224871   4.133   4.260   6.547
 8210SOL     OW24872   4.866   3.968   0.060
 8210SOL    HW124873   4.945   3.971   0.115
 8210SOL    HW224874   4.894   4.006   6.977
 8211SOL     OW24875   3.733   5.039   5.778
 8211SOL    HW124876   3.646   5.056   5.744
 8211SOL    HW224877   3.728   4.950   5.814
 8212SOL     OW24878   3.811   5.513   6.526
 8212SOL    HW124879   3.783   5.433   6.481
 8212SOL    HW224880   3.903   5.523   6.502
 8213SOL     OW24881   4.213   5.300   6.491
 8213SOL    HW124882   4.283   5.361   6.515
 8213SOL    HW224883   4.257   5.237   6.433
 8214SOL     OW24884   4.703   4.510   6.823
 8214SOL    HW124885   4.775   4.480   6.878
 8214SOL    HW224886   4.625   4.476   6.867
 8215SOL     OW24887   3.778   4.280   6.721
 8215SOL    HW124888   3.823   4.248   6.642
 8215SOL    HW224889   3.849   4.309   6.779
 8216SOL     OW24890   4.542   4.294   5.955
 8216SOL    HW124891   4.548   4.220   5.894
 8216SOL    HW224892   4.467   4.345   5.923
 8217SOL     OW24893   5.372   4.335   6.751
 8217SOL    HW124894   5.359   4.279   6.828
 8217SOL    HW224895   5.464   4.322   6.727
 8218SOL     OW24896   4.406   4.187   6.852
 8218SOL    HW124897   4.368   4.105   6.820
 8218SOL    HW224898   4.412   4.243   6.774
 8219SOL     OW24899   4.670   5.385   6.996
 8219SOL    HW124900   4.639   5.372   6.906
 8219SOL    HW224901   4.645   5.475   0.017
 8220SOL     OW24902   4.181   4.215   5.763
 8220SOL    HW124903   4.241   4.284   5.789
 8220SOL    HW224904   4.096   4.258   5.756
 8221SOL     OW24905   3.881   4.871   0.061
 8221SOL    HW124906   3.937   4.829   0.125
 8221SOL    HW224907   3.889   4.816   6.982
 8222SOL     OW24908   5.001   4.725   6.817
 8222SOL    HW124909   5.034   4.679   6.740
 8222SOL    HW224910   4.984   4.814   6.787
 8223SOL     OW24911   5.041   4.581   5.888
 8223SOL    HW124912   4.969   4.549   5.941
 8223SOL    HW224913   5.014   4.567   5.797
 8224SOL     OW24914   5.473   5.489   6.719
 8224SOL    HW124915   5.549   5.504   6.663
 8224SOL    HW224916   5.460   5.395   6.718
 8225SOL     OW24917   4.972   5.447   6.701
 8225SOL    HW124918   5.053   5.472   6.656
 8225SOL    HW224919   4.981   5.354   6.718
 8226SOL     OW24920   3.808   4.985   6.600
 8226SOL    HW124921   3.783   4.993   6.692
 8226SOL    HW224922   3.742   4.928   6.562
 8227SOL     OW24923   5.447   3.884   6.089
 8227SOL    HW124924   5.517   3.866   6.026
 8227SOL    HW224925   5.430   3.799   6.130
 8228SOL     OW24926   5.117   5.292   6.079
 8228SOL    HW124927   5.175   5.326   6.011
 8228SOL    HW224928   5.066   5.368   6.107
 8229SOL     OW24929   5.001   4.653   6.256
 8229SOL    HW124930   5.075   4.593   6.267
 8229SOL    HW224931   5.036   4.724   6.202
 8230SOL     OW24932   4.392   5.352   5.742
 8230SOL    HW124933   4.405   5.366   5.649
 8230SOL    HW224934   4.336   5.274   5.747
 8231SOL     OW24935   5.566   3.899   6.560
 8231SOL    HW124936   5.596   3.812   6.537
 8231SOL    HW224937   5.479   3.906   6.522
 8232SOL     OW24938   3.979   4.037   6.300
 8232SOL    HW124939   3.892   4.070   6.276
 8232SOL    HW224940   3.978   4.033   6.395
 8233SOL     OW24941   4.932   5.324   5.620
 8233SOL    HW124942   4.921   5.232   5.646
 8233SOL    HW224943   4.866   5.337   5.552
 8234SOL     OW24944   4.496   4.748   6.956
 8234SOL    HW124945   4.553   4.710   6.889
 8234SOL    HW224946   4.545   4.824   6.990
 8235SOL     OW24947   4.641   4.634   5.877
 8235SOL    HW124948   4.701   4.668   5.811
 8235SOL    HW224949   4.692   4.567   5.923
 8236SOL     OW24950   5.212   5.355   5.632
 8236SOL    HW124951   5.118   5.343   5.616
 8236SOL    HW224952   5.250   5.360   5.545
 8237SOL     OW24953   5.334   5.010   6.828
 8237SOL    HW124954   5.419   5.006   6.871
 8237SOL    HW224955   5.271   4.987   6.896
 8238SOL     OW24956   4.787   4.834   6.298
 8238SOL    HW124957   4.714   4.783   6.333
 8238SOL    HW224958   4.852   4.768   6.272
 8239SOL     OW24959   4.745   3.965   6.541
 8239SOL    HW124960   4.744   3.917   6.458
 8239SOL    HW224961   4.744   3.896   6.608
 8240SOL     OW24962   4.330   5.212   6.066
 8240SOL    HW124963   4.380   5.162   6.001
 8240SOL    HW224964   4.253   5.243   6.018
 8241SOL     OW24965   5.419   4.150   6.948
 8241SOL    HW124966   5.483   4.150   0.020
 8241SOL    HW224967   5.421   4.060   6.914
 8242SOL     OW24968   3.988   5.066   5.880
 8242SOL    HW124969   3.896   5.061   5.854
 8242SOL    HW224970   3.986   5.107   5.966
 8243SOL     OW24971   4.402   3.910   0.087
 8243SOL    HW124972   4.489   3.872   0.077
 8243SOL    HW224973   4.417   3.997   0.123
 8244SOL     OW24974   3.806   4.050   5.616
 8244SOL    HW124975   3.720   4.032   5.580
 8244SOL    HW224976   3.835   4.129   5.570
 8245SOL     OW24977   3.784   3.877   5.885
 8245SOL    HW124978   3.772   3.956   5.832
 8245SOL    HW224979   3.869   3.843   5.859
 8246SOL     OW24980   4.902   5.057   5.705
 8246SOL    HW124981   4.812   5.025   5.706
 8246SOL    HW224982   4.928   5.059   5.797
 8247SOL     OW24983   5.215   5.509   6.579
 8247SOL    HW124984   5.231   5.574   6.510
 8247SOL    HW224985   5.300   5.494   6.619
 8248SOL     OW24986   5.220   5.023   0.282
 8248SOL    HW124987   5.131   5.025   0.318
 8248SOL    HW224988   5.236   4.931   0.262
 8249SOL     OW24989   4.115   5.454   0.090
 8249SOL    HW124990   4.037   5.504   0.116
 8249SOL    HW224991   4.100   5.367   0.127
 8250SOL     OW24992   5.428   4.604   6.831
 8250SOL    HW124993   5.394   4.520   6.801
 8250SOL    HW224994   5.392   4.667   6.768
 8251SOL     OW24995   4.940   4.044   6.042
 8251SOL    HW124996   5.001   3.970   6.037
 8251SOL    HW224997   4.969   4.094   6.118
 8252SOL     OW24998   4.308   4.458   6.260
 8252SOL    HW124999   4.349   4.543   6.245
 8252SOL    HW225000   4.245   4.449   6.189
 8253SOL     OW25001   5.489   4.621   0.102
 8253SOL    HW125002   5.484   4.715   0.122
 8253SOL    HW225003   5.469   4.615   0.009
 8254SOL     OW25004   4.587   5.088   5.631
 8254SOL    HW125005   4.551   5.115   5.715
 8254SOL    HW225006   4.603   5.171   5.585
 8255SOL     OW25007   4.390   5.506   6.526
 8255SOL    HW125008   4.371   5.597   6.505
 8255SOL    HW225009   4.485   5.499   6.519
 8256SOL     OW25010   4.594   4.695   6.440
 8256SOL    HW125011   4.642   4.622   6.479
 8256SOL    HW225012   4.557   4.741   6.515
 8257SOL     OW25013   4.801   4.713   5.675
 8257SOL    HW125014   4.780   4.764   5.597
 8257SOL    HW225015   4.874   4.658   5.648
 8258SOL     OW25016   5.572   5.278   6.426
 8258SOL    HW125017   5.491   5.268   6.377
 8258SOL    HW225018   5.559   5.228   6.507
 8259SOL     OW25019   3.815   4.950   6.250
 8259SOL    HW125020   3.826   4.905   6.334
 8259SOL    HW225021   3.883   4.913   6.194
 8260SOL     OW25022   5.533   3.894   6.837
 8260SOL    HW125023   5.507   3.802   6.830
 8260SOL    HW225024   5.548   3.921   6.746
 8261SOL     OW25025   4.151   4.156   6.111
 8261SOL    HW125026   4.183   4.086   6.054
 8261SOL    HW225027   4.101   4.112   6.179
 8262SOL     OW25028   5.406   5.226   6.667
 8262SOL    HW125029   5.329   5.209   6.613
 8262SOL    HW225030   5.406   5.155   6.731
 8263SOL     OW25031   4.039   4.277   6.879
 8263SOL    HW125032   4.102   4.219   6.922
 8263SOL    HW225033   4.054   4.264   6.785
 8264SOL     OW25034   4.557   5.303   6.257
 8264SOL    HW125035   4.534   5.370   6.194
 8264SOL    HW225036   4.481   5.245   6.259
 8265SOL     OW25037   5.156   3.963   6.702
 8265SOL    HW125038   5.182   3.885   6.751
 8265SOL    HW225039   5.106   4.015   6.765
 8266SOL     OW25040   4.741   3.739   6.703
 8266SOL    HW125041   4.689   3.671   6.661
 8266SOL    HW225042   4.826   3.699   6.717
 8267SOL     OW25043   4.499   5.058   5.908
 8267SOL    HW125044   4.473   4.966   5.916
 8267SOL    HW225045   4.581   5.064   5.958
 8268SOL     OW25046   4.343   5.285   6.860
 8268SOL    HW125047   4.344   5.377   6.886
 8268SOL    HW225048   4.428   5.271   6.819
 8269SOL     OW25049   5.084   3.775   5.760
 8269SOL    HW125050   5.118   3.703   5.707
 8269SOL    HW225051   4.994   3.748   5.780
 8270SOL     OW25052   5.021   4.188   6.263
 8270SOL    HW125053   4.968   4.268   6.267
 8270SOL    HW225054   5.014   4.151   6.351
 8271SOL     OW25055   5.309   3.920   6.472
 8271SOL    HW125056   5.252   3.945   6.544
 8271SOL    HW225057   5.308   3.995   6.413
 8272SOL     OW25058   3.766   4.788   5.895
 8272SOL    HW125059   3.859   4.779   5.876
 8272SOL    HW225060   3.738   4.699   5.916
 8273SOL     OW25061   4.614   5.387   5.922
 8273SOL    HW125062   4.538   5.371   5.866
 8273SOL    HW225063   4.586   5.458   5.979
 8274SOL     OW25064   3.942   6.228   0.139
 8274SOL    HW125065   3.851   6.214   0.166
 8274SOL    HW225066   3.943   6.209   0.046
 8275SOL     OW25067   3.948   5.871   0.993
 8275SOL    HW125068   3.976   5.835   1.077
 8275SOL    HW225069   3.859   5.838   0.981
 8276SOL     OW25070   3.723   5.977   0.644
 8276SOL    HW125071   3.644   6.007   0.689
 8276SOL    HW225072   3.696   5.895   0.602
 8277SOL     OW25073   4.290   6.878   1.182
 8277SOL    HW125074   4.222   6.902   1.118
 8277SOL    HW225075   4.246   6.885   1.267
 8278SOL     OW25076   5.268   0.052   0.690
 8278SOL    HW125077   5.255   0.047   0.784
 8278SOL    HW225078   5.184   0.085   0.656
 8279SOL     OW25079   4.854   6.281   0.694
 8279SOL    HW125080   4.902   6.363   0.684
 8279SOL    HW225081   4.806   6.292   0.776
 8280SOL     OW25082   5.509   6.172   0.207
 8280SOL    HW125083   5.445   6.200   0.142
 8280SOL    HW225084   5.463   6.106   0.259
 8281SOL     OW25085   4.489   6.750   1.030
 8281SOL    HW125086   4.425   6.788   1.090
 8281SOL    HW225087   4.478   6.799   0.949
 8282SOL     OW25088   4.604   6.345   1.827
 8282SOL    HW125089   4.586   6.413   1.892
 8282SOL    HW225090   4.625   6.393   1.747
 8283SOL     OW25091   4.412   6.576   0.645
 8283SOL    HW125092   4.478   6.570   0.714
 8283SOL    HW225093   4.343   6.630   0.683
 8284SOL     OW25094   4.418   6.732   1.813
 8284SOL    HW125095   4.449   6.820   1.834
 8284SOL    HW225096   4.354   6.745   1.743
 8285SOL     OW25097   4.065   0.003   1.057
 8285SOL    HW125098   3.988   6.963   1.017
 8285SOL    HW225099   4.105   0.054   0.987
 8286SOL     OW25100   4.176   5.977   1.475
 8286SOL    HW125101   4.252   5.919   1.485
 8286SOL    HW225102   4.101   5.922   1.497
 8287SOL     OW25103   5.329   6.031   0.750
 8287SOL    HW125104   5.260   6.051   0.686
 8287SOL    HW225105   5.328   6.104   0.810
 8288SOL     OW25106   3.980   6.678   0.894
 8288SOL    HW125107   3.977   6.590   0.931
 8288SOL    HW225108   3.924   6.730   0.952
 8289SOL     OW25109   4.310   6.546   0.145
 8289SOL    HW125110   4.371   6.556   0.072
 8289SOL    HW225111   4.351   6.592   0.218
 8290SOL     OW25112   5.319   5.714   1.463
 8290SOL    HW125113   5.346   5.794   1.417
 8290SOL    HW225114   5.297   5.744   1.551
 8291SOL     OW25115   3.842   6.238   0.559
 8291SOL    HW125116   3.812   6.150   0.583
 8291SOL    HW225117   3.835   6.289   0.639
 8292SOL     OW25118   5.414   6.491   0.649
 8292SOL    HW125119   5.500   6.452   0.634
 8292SOL    HW225120   5.397   6.543   0.570
 8293SOL     OW25121   5.375   6.675   0.441
 8293SOL    HW125122   5.448   6.687   0.379
 8293SOL    HW225123   5.396   6.733   0.514
 8294SOL     OW25124   3.853   6.331   1.583
 8294SOL    HW125125   3.945   6.358   1.585
 8294SOL    HW225126   3.804   6.413   1.594
 8295SOL     OW25127   5.028   6.812   1.435
 8295SOL    HW125128   5.063   6.752   1.369
 8295SOL    HW225129   5.091   6.807   1.508
 8296SOL     OW25130   4.545   5.594   0.521
 8296SOL    HW125131   4.586   5.677   0.497
 8296SOL    HW225132   4.451   5.614   0.524
 8297SOL     OW25133   3.912   6.547   1.280
 8297SOL    HW125134   3.997   6.506   1.263
 8297SOL    HW225135   3.851   6.500   1.222
 8298SOL     OW25136   5.222   6.591   0.204
 8298SOL    HW125137   5.157   6.534   0.243
 8298SOL    HW225138   5.303   6.572   0.252
 8299SOL     OW25139   4.070   5.835   1.835
 8299SOL    HW125140   4.109   5.919   1.859
 8299SOL    HW225141   3.976   5.846   1.852
 8300SOL     OW25142   5.190   6.982   0.952
 8300SOL    HW125143   5.112   0.008   1.000
 8300SOL    HW225144   5.170   6.894   0.920
 8301SOL     OW25145   4.325   6.297   0.267
 8301SOL    HW125146   4.324   6.384   0.226
 8301SOL    HW225147   4.263   6.305   0.340
 8302SOL     OW25148   5.003   5.954   0.934
 8302SOL    HW125149   4.914   5.919   0.943
 8302SOL    HW225150   5.056   5.899   0.993
 8303SOL     OW25151   4.516   6.202   1.445
 8303SOL    HW125152   4.491   6.176   1.534
 8303SOL    HW225153   4.482   6.132   1.389
 8304SOL     OW25154   5.116   6.060   1.678
 8304SOL    HW125155   5.121   6.104   1.763
 8304SOL    HW225156   5.172   5.983   1.688
 8305SOL     OW25157   4.676   6.474   1.589
 8305SOL    HW125158   4.732   6.405   1.552
 8305SOL    HW225159   4.625   6.506   1.515
 8306SOL     OW25160   4.719   5.994   1.231
 8306SOL    HW125161   4.629   6.010   1.260
 8306SOL    HW225162   4.710   5.953   1.145
 8307SOL     OW25163   4.781   6.287   0.425
 8307SOL    HW125164   4.800   6.283   0.519
 8307SOL    HW225165   4.696   6.244   0.416
 8308SOL     OW25166   3.811   6.408   0.775
 8308SOL    HW125167   3.891   6.401   0.827
 8308SOL    HW225168   3.764   6.481   0.814
 8309SOL     OW25169   4.610   5.928   0.210
 8309SOL    HW125170   4.643   5.991   0.145
 8309SOL    HW225171   4.643   5.843   0.180
 8310SOL     OW25172   5.425   6.155   1.831
 8310SOL    HW125173   5.392   6.229   1.780
 8310SOL    HW225174   5.454   6.092   1.764
 8311SOL     OW25175   5.121   6.726   0.579
 8311SOL    HW125176   5.205   6.707   0.537
 8311SOL    HW225177   5.082   6.795   0.525
 8312SOL     OW25178   4.276   5.761   0.899
 8312SOL    HW125179   4.278   5.791   0.990
 8312SOL    HW225180   4.275   5.841   0.847
 8313SOL     OW25181   5.525   6.631   0.881
 8313SOL    HW125182   5.473   6.626   0.801
 8313SOL    HW225183   5.460   6.642   0.951
 8314SOL     OW25184   4.045   6.535   0.249
 8314SOL    HW125185   4.128   6.547   0.203
 8314SOL    HW225186   4.016   6.447   0.223
 8315SOL     OW25187   5.205   6.331   0.721
 8315SOL    HW125188   5.205   6.295   0.809
 8315SOL    HW225189   5.282   6.387   0.717
 8316SOL     OW25190   3.927   5.854   1.504
 8316SOL    HW125191   3.846   5.906   1.511
 8316SOL    HW225192   3.904   5.769   1.541
 8317SOL     OW25193   5.372   0.033   0.081
 8317SOL    HW125194   5.362   0.128   0.088
 8317SOL    HW225195   5.283   6.999   0.091
 8318SOL     OW25196   4.125   6.278   0.466
 8318SOL    HW125197   4.139   6.185   0.485
 8318SOL    HW225198   4.031   6.291   0.483
 8319SOL     OW25199   5.249   5.810   1.723
 8319SOL    HW125200   5.260   5.830   1.816
 8319SOL    HW225201   5.182   5.742   1.721
 8320SOL     OW25202   4.486   5.864   1.756
 8320SOL    HW125203   4.568   5.814   1.753
 8320SOL    HW225204   4.441   5.831   1.833
 8321SOL     OW25205   5.060   6.174   1.434
 8321SOL    HW125206   5.092   6.143   1.519
 8321SOL    HW225207   5.099   6.261   1.424
 8322SOL     OW25208   4.655   6.093   0.900
 8322SOL    HW125209   4.628   6.085   0.809
 8322SOL    HW225210   4.684   6.006   0.925
 8323SOL     OW25211   4.278   5.657   0.500
 8323SOL    HW125212   4.198   5.656   0.553
 8323SOL    HW225213   4.266   5.730   0.440
 8324SOL     OW25214   5.131   6.786   0.045
 8324SOL    HW125215   5.172   6.718   0.097
 8324SOL    HW225216   5.080   6.739   6.979
 8325SOL     OW25217   4.671   5.834   0.463
 8325SOL    HW125218   4.642   5.873   0.381
 8325SOL    HW225219   4.765   5.850   0.466
 8326SOL     OW25220   4.804   6.272   1.458
 8326SOL    HW125221   4.739   6.202   1.462
 8326SOL    HW225222   4.888   6.226   1.452
 8327SOL     OW25223   5.006   0.153   0.742
 8327SOL    HW125224   4.964   0.222   0.691
 8327SOL    HW225225   4.994   0.180   0.833
 8328SOL     OW25226   4.198   6.713   0.739
 8328SOL    HW125227   4.127   6.707   0.802
 8328SOL    HW225228   4.154   6.717   0.654
 8329SOL     OW25229   4.796   6.194   0.026
 8329SOL    HW125230   4.703   6.190   0.049
 8329SOL    HW225231   4.841   6.163   0.105
 8330SOL     OW25232   3.809   6.141   1.392
 8330SOL    HW125233   3.901   6.140   1.366
 8330SOL    HW225234   3.804   6.211   1.457
 8331SOL     OW25235   4.281   5.813   1.172
 8331SOL    HW125236   4.322   5.741   1.220
 8331SOL    HW225237   4.189   5.810   1.200
 8332SOL     OW25238   4.590   6.040   0.641
 8332SOL    HW125239   4.552   6.098   0.575
 8332SOL    HW225240   4.614   5.961   0.594
 8333SOL     OW25241   4.746   5.636   0.742
 8333SOL    HW125242   4.682   5.633   0.671
 8333SOL    HW225243   4.720   5.564   0.800
 8334SOL     OW25244   5.156   6.728   0.862
 8334SOL    HW125245   5.085   6.665   0.872
 8334SOL    HW225246   5.166   6.740   0.768
 8335SOL     OW25247   5.190   6.194   0.966
 8335SOL    HW125248   5.132   6.118   0.970
 8335SOL    HW225249   5.246   6.186   1.043
 8336SOL     OW25250   5.557   6.394   0.388
 8336SOL    HW125251   5.614   6.336   0.440
 8336SOL    HW225252   5.546   6.348   0.305
 8337SOL     OW25253   5.416   6.828   0.651
 8337SOL    HW125254   5.507   6.849   0.672
 8337SOL    HW225255   5.368   6.909   0.670
 8338SOL     OW25256   5.112   6.140   0.062
 8338SOL    HW125257   5.055   6.136   0.139
 8338SOL    HW225258   5.168   6.062   0.071
 8339SOL     OW25259   4.230   5.848   0.310
 8339SOL    HW125260   4.258   5.794   0.236
 8339SOL    HW225261   4.206   5.932   0.272
 8340SOL     OW25262   5.477   6.810   1.567
 8340SOL    HW125263   5.553   6.765   1.602
 8340SOL    HW225264   5.500   6.903   1.571
 8341SOL     OW25265   4.795   6.893   1.321
 8341SOL    HW125266   4.723   6.876   1.381
 8341SOL    HW225267   4.874   6.875   1.373
 8342SOL     OW25268   4.866   6.759   1.095
 8342SOL    HW125269   4.831   6.807   1.170
 8342SOL    HW225270   4.805   6.780   1.023
 8343SOL     OW25271   5.343   6.681   1.081
 8343SOL    HW125272   5.324   6.734   1.158
 8343SOL    HW225273   5.269   6.698   1.022
 8344SOL     OW25274   4.643   5.677   1.390
 8344SOL    HW125275   4.665   5.660   1.299
 8344SOL    HW225276   4.722   5.717   1.427
 8345SOL     OW25277   4.695   6.698   1.742
 8345SOL    HW125278   4.601   6.707   1.757
 8345SOL    HW225279   4.702   6.628   1.678
 8346SOL     OW25280   4.433   6.638   0.373
 8346SOL    HW125281   4.421   6.622   0.467
 8346SOL    HW225282   4.511   6.588   0.350
 8347SOL     OW25283   4.145   6.405   1.253
 8347SOL    HW125284   4.212   6.414   1.320
 8347SOL    HW225285   4.110   6.317   1.266
 8348SOL     OW25286   4.987   5.959   1.282
 8348SOL    HW125287   5.019   6.037   1.327
 8348SOL    HW225288   4.896   5.980   1.260
 8349SOL     OW25289   4.070   6.702   0.492
 8349SOL    HW125290   4.120   6.768   0.444
 8349SOL    HW225291   4.073   6.624   0.437
 8350SOL     OW25292   4.269   6.115   0.859
 8350SOL    HW125293   4.283   6.174   0.785
 8350SOL    HW225294   4.337   6.140   0.922
 8351SOL     OW25295   5.311   6.209   0.485
 8351SOL    HW125296   5.256   6.251   0.550
 8351SOL    HW225297   5.362   6.280   0.446
 8352SOL     OW25298   4.143   6.329   1.606
 8352SOL    HW125299   4.206   6.371   1.548
 8352SOL    HW225300   4.180   6.243   1.623
 8353SOL     OW25301   5.334   6.367   1.688
 8353SOL    HW125302   5.247   6.407   1.682
 8353SOL    HW225303   5.385   6.409   1.619
 8354SOL     OW25304   4.720   5.721   1.754
 8354SOL    HW125305   4.778   5.794   1.733
 8354SOL    HW225306   4.769   5.643   1.728
 8355SOL     OW25307   4.220   5.621   1.752
 8355SOL    HW125308   4.172   5.569   1.688
 8355SOL    HW225309   4.165   5.697   1.768
 8356SOL     OW25310   4.307   6.454   1.034
 8356SOL    HW125311   4.328   6.548   1.029
 8356SOL    HW225312   4.249   6.447   1.110
 8357SOL     OW25313   5.072   6.441   1.021
 8357SOL    HW125314   4.985   6.429   0.983
 8357SOL    HW225315   5.116   6.356   1.007
 8358SOL     OW25316   4.917   6.111   0.264
 8358SOL    HW125317   4.927   6.035   0.321
 8358SOL    HW225318   4.879   6.178   0.321
 8359SOL     OW25319   4.019   5.782   1.246
 8359SOL    HW125320   3.983   5.813   1.329
 8359SOL    HW225321   4.002   5.688   1.247
 8360SOL     OW25322   3.779   6.897   1.286
 8360SOL    HW125323   3.817   6.843   1.356
 8360SOL    HW225324   3.770   6.984   1.326
 8361SOL     OW25325   4.443   6.212   1.051
 8361SOL    HW125326   4.520   6.202   0.996
 8361SOL    HW225327   4.413   6.301   1.035
 8362SOL     OW25328   5.463   6.546   1.857
 8362SOL    HW125329   5.420   6.477   1.807
 8362SOL    HW225330   5.405   6.561   1.932
 8363SOL     OW25331   4.034   5.651   0.627
 8363SOL    HW125332   4.009   5.741   0.649
 8363SOL    HW225333   4.042   5.607   0.712
 8364SOL     OW25334   5.352   5.963   0.370
 8364SOL    HW125335   5.377   5.900   0.438
 8364SOL    HW225336   5.331   6.043   0.419
 8365SOL     OW25337   4.753   6.342   0.958
 8365SOL    HW125338   4.744   6.358   1.052
 8365SOL    HW225339   4.727   6.250   0.948
 8366SOL     OW25340   5.589   0.059   1.594
 8366SOL    HW125341   5.630   0.135   1.552
 8366SOL    HW225342   5.636   0.049   1.677
 8367SOL     OW25343   4.076   6.506   1.807
 8367SOL    HW125344   4.153   6.515   1.864
 8367SOL    HW225345   4.102   6.441   1.742
 8368SOL     OW25346   5.198   5.887   0.153
 8368SOL    HW125347   5.169   5.797   0.168
 8368SOL    HW225348   5.258   5.906   0.225
 8369SOL     OW25349   5.021   6.412   0.037
 8369SOL    HW125350   5.058   6.325   0.024
 8369SOL    HW225351   5.054   6.463   6.963
 8370SOL     OW25352   4.030   6.395   0.944
 8370SOL    HW125353   4.124   6.414   0.936
 8370SOL    HW225354   4.027   6.305   0.976
 8371SOL     OW25355   4.049   6.118   1.013
 8371SOL    HW125356   4.013   6.030   1.001
 8371SOL    HW225357   4.126   6.120   0.956
 8372SOL     OW25358   4.859   5.957   1.687
 8372SOL    HW125359   4.811   6.011   1.750
 8372SOL    HW225360   4.945   5.998   1.682
 8373SOL     OW25361   4.884   5.782   1.473
 8373SOL    HW125362   4.873   5.845   1.544
 8373SOL    HW225363   4.927   5.832   1.403
 8374SOL     OW25364   4.695   6.369   1.223
 8374SOL    HW125365   4.756   6.352   1.295
 8374SOL    HW225366   4.613   6.328   1.251
 8375SOL     OW25367   3.761   6.137   1.117
 8375SOL    HW125368   3.842   6.131   1.067
 8375SOL    HW225369   3.790   6.137   1.208
 8376SOL     OW25370   3.914   6.109   1.733
 8376SOL    HW125371   3.967   6.063   1.668
 8376SOL    HW225372   3.880   6.186   1.686
 8377SOL     OW25373   5.106   6.520   1.657
 8377SOL    HW125374   5.133   6.611   1.651
 8377SOL    HW225375   5.102   6.490   1.566
 8378SOL     OW25376   4.543   6.154   0.380
 8378SOL    HW125377   4.549   6.082   0.318
 8378SOL    HW225378   4.470   6.208   0.349
 8379SOL     OW25379   5.363   6.184   1.177
 8379SOL    HW125380   5.355   6.127   1.254
 8379SOL    HW225381   5.452   6.168   1.145
 8380SOL     OW25382   4.441   6.028   1.251
 8380SOL    HW125383   4.381   5.957   1.227
 8380SOL    HW225384   4.431   6.092   1.180
 8381SOL     OW25385   4.175   6.083   0.182
 8381SOL    HW125386   4.236   6.152   0.210
 8381SOL    HW225387   4.089   6.125   0.183
 8382SOL     OW25388   3.896   6.731   1.477
 8382SOL    HW125389   3.882   6.682   1.558
 8382SOL    HW225390   3.902   6.664   1.409
 8383SOL     OW25391   5.059   6.622   1.222
 8383SOL    HW125392   5.080   6.558   1.154
 8383SOL    HW225393   4.990   6.676   1.184
 8384SOL     OW25394   5.027   6.431   0.312
 8384SOL    HW125395   4.950   6.396   0.356
 8384SOL    HW225396   5.012   6.413   0.219
 8385SOL     OW25397   3.808   6.859   1.017
 8385SOL    HW125398   3.793   6.870   1.111
 8385SOL    HW225399   3.736   6.803   0.988
 8386SOL     OW25400   4.662   5.662   0.107
 8386SOL    HW125401   4.732   5.714   0.067
 8386SOL    HW225402   4.708   5.605   0.170
 8387SOL     OW25403   5.453   5.754   0.535
 8387SOL    HW125404   5.518   5.737   0.467
 8387SOL    HW225405   5.425   5.667   0.563
 8388SOL     OW25406   4.999   6.508   0.678
 8388SOL    HW125407   5.072   6.447   0.687
 8388SOL    HW225408   5.035   6.584   0.632
 8389SOL     OW25409   4.534   6.841   1.420
 8389SOL    HW125410   4.508   6.879   1.504
 8389SOL    HW225411   4.467   6.870   1.358
 8390SOL     OW25412   5.567   5.755   0.965
 8390SOL    HW125413   5.596   5.667   0.941
 8390SOL    HW225414   5.480   5.763   0.925
 8391SOL     OW25415   3.979   5.901   0.715
 8391SOL    HW125416   3.893   5.936   0.693
 8391SOL    HW225417   3.979   5.897   0.811
 8392SOL     OW25418   4.550   6.578   1.369
 8392SOL    HW125419   4.602   6.565   1.290
 8392SOL    HW225420   4.551   6.673   1.383
 8393SOL     OW25421   4.649   6.502   0.290
 8393SOL    HW125422   4.707   6.537   0.222
 8393SOL    HW225423   4.701   6.435   0.334
 8394SOL     OW25424   4.122   6.896   1.465
 8394SOL    HW125425   4.084   6.978   1.497
 8394SOL    HW225426   4.054   6.830   1.481
 8395SOL     OW25427   5.321   6.850   1.317
 8395SOL    HW125428   5.392   6.831   1.377
 8395SOL    HW225429   5.274   6.923   1.359
 8396SOL     OW25430   4.784   6.711   0.735
 8396SOL    HW125431   4.710   6.658   0.762
 8396SOL    HW225432   4.846   6.649   0.698
 8397SOL     OW25433   4.750   5.828   0.965
 8397SOL    HW125434   4.747   5.781   0.881
 8397SOL    HW225435   4.744   5.759   1.031
 8398SOL     OW25436   5.453   5.977   1.381
 8398SOL    HW125437   5.525   6.040   1.380
 8398SOL    HW225438   5.482   5.907   1.322
 8399SOL     OW25439   3.832   6.608   1.713
 8399SOL    HW125440   3.758   6.587   1.771
 8399SOL    HW225441   3.909   6.576   1.760
 8400SOL     OW25442   4.401   5.780   1.499
 8400SOL    HW125443   4.485   5.757   1.460
 8400SOL    HW225444   4.423   5.813   1.586
 8401SOL     OW25445   3.826   5.911   0.014
 8401SOL    HW125446   3.777   5.860   6.949
 8401SOL    HW225447   3.873   5.977   6.963
 8402SOL     OW25448   5.152   6.437   1.400
 8402SOL    HW125449   5.104   6.499   1.345
 8402SOL    HW225450   5.241   6.439   1.365
 8403SOL     OW25451   3.771   5.756   0.326
 8403SOL    HW125452   3.761   5.844   0.290
 8403SOL    HW225453   3.845   5.718   0.276
 8404SOL     OW25454   4.344   6.414   1.437
 8404SOL    HW125455   4.403   6.487   1.417
 8404SOL    HW225456   4.402   6.338   1.443
 8405SOL     OW25457   4.444   6.143   1.699
 8405SOL    HW125458   4.489   6.200   1.760
 8405SOL    HW225459   4.459   6.055   1.732
 8406SOL     OW25460   5.211   6.775   1.643
 8406SOL    HW125461   5.204   6.799   1.735
 8406SOL    HW225462   5.303   6.789   1.621
 8407SOL     OW25463   5.388   6.461   1.252
 8407SOL    HW125464   5.383   6.376   1.208
 8407SOL    HW225465   5.377   6.526   1.182
 8408SOL     OW25466   4.943   5.905   0.454
 8408SOL    HW125467   5.024   5.859   0.430
 8408SOL    HW225468   4.965   5.954   0.533
 8409SOL     OW25469   4.309   6.317   0.673
 8409SOL    HW125470   4.350   6.403   0.662
 8409SOL    HW225471   4.245   6.311   0.602
 8410SOL     OW25472   5.479   5.949   1.654
 8410SOL    HW125473   5.466   5.966   1.560
 8410SOL    HW225474   5.405   5.893   1.678
 8411SOL     OW25475   5.463   6.520   1.507
 8411SOL    HW125476   5.461   6.616   1.515
 8411SOL    HW225477   5.450   6.503   1.414
 8412SOL     OW25478   4.593   6.552   0.856
 8412SOL    HW125479   4.645   6.480   0.891
 8412SOL    HW225480   4.565   6.601   0.934
 8413SOL     OW25481   4.812   6.585   0.079
 8413SOL    HW125482   4.766   6.571   6.997
 8413SOL    HW225483   4.890   6.530   0.073
 8414SOL     OW25484   3.942   6.918   1.812
 8414SOL    HW125485   3.883   6.844   1.828
 8414SOL    HW225486   3.948   6.961   1.897
 8415SOL     OW25487   3.832   6.825   0.674
 8415SOL    HW125488   3.855   6.769   0.748
 8415SOL    HW225489   3.883   6.791   0.601
 8416SOL     OW25490   4.422   6.972   1.634
 8416SOL    HW125491   4.331   6.978   1.665
 8416SOL    HW225492   4.441   0.059   1.599
 8417SOL     OW25493   5.534   5.766   1.235
 8417SOL    HW125494   5.540   5.672   1.248
 8417SOL    HW225495   5.546   5.779   1.141
 8418SOL     OW25496   4.151   6.019   0.527
 8418SOL    HW125497   4.178   5.946   0.470
 8418SOL    HW225498   4.101   5.977   0.597
 8419SOL     OW25499   5.384   0.036   1.132
 8419SOL    HW125500   5.326   0.022   1.057
 8419SOL    HW225501   5.368   6.961   1.189
 8420SOL     OW25502   4.061   6.147   1.293
 8420SOL    HW125503   4.114   6.088   1.347
 8420SOL    HW225504   4.077   6.117   1.204
 8421SOL     OW25505   5.153   5.817   1.116
 8421SOL    HW125506   5.171   5.733   1.158
 8421SOL    HW225507   5.102   5.865   1.182
 8422SOL     OW25508   4.733   5.602   1.133
 8422SOL    HW125509   4.678   5.536   1.090
 8422SOL    HW225510   4.820   5.563   1.135
 8423SOL     OW25511   4.534   6.881   0.287
 8423SOL    HW125512   4.495   6.798   0.314
 8423SOL    HW225513   4.546   6.930   0.369
 8424SOL     OW25514   5.078   5.642   0.186
 8424SOL    HW125515   5.116   5.575   0.129
 8424SOL    HW225516   4.996   5.604   0.216
 8425SOL     OW25517   5.013   6.046   0.675
 8425SOL    HW125518   4.964   6.128   0.680
 8425SOL    HW225519   5.012   6.013   0.765
 8426SOL     OW25520   5.307   5.779   0.884
 8426SOL    HW125521   5.253   5.807   0.958
 8426SOL    HW225522   5.309   5.856   0.827
 8427SOL     OW25523   3.794   6.646   0.326
 8427SOL    HW125524   3.888   6.627   0.321
 8427SOL    HW225525   3.753   6.562   0.342
 8428SOL     OW25526   3.944   6.210   1.993
 8428SOL    HW125527   3.855   6.203   2.029
 8428SOL    HW225528   3.934   6.187   1.901
 8429SOL     OW25529   3.948   5.871   2.855
 8429SOL    HW125530   3.976   5.836   2.939
 8429SOL    HW225531   3.859   5.838   2.843
 8430SOL     OW25532   3.721   5.971   2.501
 8430SOL    HW125533   3.641   5.998   2.545
 8430SOL    HW225534   3.696   5.894   2.450
 8431SOL     OW25535   4.290   6.878   3.044
 8431SOL    HW125536   4.222   6.901   2.981
 8431SOL    HW225537   4.246   6.884   3.129
 8432SOL     OW25538   5.270   0.052   2.555
 8432SOL    HW125539   5.251   0.045   2.648
 8432SOL    HW225540   5.191   0.090   2.517
 8433SOL     OW25541   4.856   6.283   2.555
 8433SOL    HW125542   4.903   6.365   2.545
 8433SOL    HW225543   4.808   6.293   2.637
 8434SOL     OW25544   5.506   6.180   2.086
 8434SOL    HW125545   5.477   6.176   1.994
 8434SOL    HW225546   5.463   6.105   2.127
 8435SOL     OW25547   4.492   6.753   2.893
 8435SOL    HW125548   4.427   6.789   2.952
 8435SOL    HW225549   4.477   6.800   2.810
 8436SOL     OW25550   4.604   6.345   3.689
 8436SOL    HW125551   4.586   6.413   3.754
 8436SOL    HW225552   4.625   6.393   3.609
 8437SOL     OW25553   4.414   6.579   2.503
 8437SOL    HW125554   4.479   6.572   2.573
 8437SOL    HW225555   4.343   6.631   2.541
 8438SOL     OW25556   4.418   6.732   3.675
 8438SOL    HW125557   4.449   6.820   3.696
 8438SOL    HW225558   4.354   6.745   3.605
 8439SOL     OW25559   4.063   0.004   2.920
 8439SOL    HW125560   3.987   6.963   2.879
 8439SOL    HW225561   4.104   0.054   2.850
 8440SOL     OW25562   4.176   5.977   3.337
 8440SOL    HW125563   4.251   5.919   3.347
 8440SOL    HW225564   4.100   5.922   3.359
 8441SOL     OW25565   5.327   6.026   2.607
 8441SOL    HW125566   5.255   6.043   2.547
 8441SOL    HW225567   5.328   6.102   2.666
 8442SOL     OW25568   3.981   6.678   2.758
 8442SOL    HW125569   3.978   6.589   2.793
 8442SOL    HW225570   3.924   6.729   2.815
 8443SOL     OW25571   4.296   6.565   2.003
 8443SOL    HW125572   4.342   6.614   1.935
 8443SOL    HW225573   4.338   6.594   2.085
 8444SOL     OW25574   5.319   5.714   3.325
 8444SOL    HW125575   5.346   5.794   3.279
 8444SOL    HW225576   5.297   5.744   3.414
 8445SOL     OW25577   3.843   6.241   2.425
 8445SOL    HW125578   3.813   6.153   2.446
 8445SOL    HW225579   3.834   6.290   2.506
 8446SOL     OW25580   5.412   6.500   2.505
 8446SOL    HW125581   5.498   6.461   2.486
 8446SOL    HW225582   5.393   6.554   2.429
 8447SOL     OW25583   5.374   6.689   2.287
 8447SOL    HW125584   5.460   6.686   2.245
 8447SOL    HW225585   5.387   6.745   2.363
 8448SOL     OW25586   3.853   6.331   3.446
 8448SOL    HW125587   3.945   6.358   3.448
 8448SOL    HW225588   3.804   6.413   3.455
 8449SOL     OW25589   5.028   6.813   3.297
 8449SOL    HW125590   5.063   6.752   3.231
 8449SOL    HW225591   5.090   6.807   3.370
 8450SOL     OW25592   4.546   5.591   2.376
 8450SOL    HW125593   4.586   5.675   2.352
 8450SOL    HW225594   4.452   5.610   2.380
 8451SOL     OW25595   3.912   6.547   3.141
 8451SOL    HW125596   3.997   6.506   3.125
 8451SOL    HW225597   3.851   6.499   3.084
 8452SOL     OW25598   5.259   6.586   2.060
 8452SOL    HW125599   5.190   6.528   2.092
 8452SOL    HW225600   5.303   6.618   2.139
 8453SOL     OW25601   4.069   5.834   3.699
 8453SOL    HW125602   4.108   5.919   3.721
 8453SOL    HW225603   3.976   5.846   3.715
 8454SOL     OW25604   5.188   6.981   2.814
 8454SOL    HW125605   5.110   0.005   2.865
 8454SOL    HW225606   5.169   6.893   2.781
 8455SOL     OW25607   4.318   6.298   2.135
 8455SOL    HW125608   4.319   6.382   2.090
 8455SOL    HW225609   4.253   6.309   2.204
 8456SOL     OW25610   5.003   5.955   2.797
 8456SOL    HW125611   4.914   5.920   2.805
 8456SOL    HW225612   5.056   5.900   2.855
 8457SOL     OW25613   4.516   6.202   3.308
 8457SOL    HW125614   4.491   6.175   3.396
 8457SOL    HW225615   4.483   6.132   3.251
 8458SOL     OW25616   5.116   6.060   3.540
 8458SOL    HW125617   5.121   6.104   3.625
 8458SOL    HW225618   5.172   5.983   3.550
 8459SOL     OW25619   4.676   6.473   3.451
 8459SOL    HW125620   4.732   6.405   3.414
 8459SOL    HW225621   4.625   6.506   3.377
 8460SOL     OW25622   4.719   5.994   3.092
 8460SOL    HW125623   4.629   6.009   3.121
 8460SOL    HW225624   4.711   5.953   3.006
 8461SOL     OW25625   4.778   6.285   2.285
 8461SOL    HW125626   4.797   6.279   2.379
 8461SOL    HW225627   4.695   6.240   2.274
 8462SOL     OW25628   3.809   6.409   2.639
 8462SOL    HW125629   3.890   6.402   2.691
 8462SOL    HW225630   3.763   6.483   2.677
 8463SOL     OW25631   4.623   5.936   2.058
 8463SOL    HW125632   4.664   5.999   1.999
 8463SOL    HW225633   4.629   5.852   2.012
 8464SOL     OW25634   5.425   6.154   3.692
 8464SOL    HW125635   5.392   6.229   3.642
 8464SOL    HW225636   5.454   6.092   3.626
 8465SOL     OW25637   5.117   6.721   2.417
 8465SOL    HW125638   5.192   6.713   2.358
 8465SOL    HW225639   5.072   6.801   2.387
 8466SOL     OW25640   4.276   5.760   2.761
 8466SOL    HW125641   4.278   5.792   2.852
 8466SOL    HW225642   4.274   5.840   2.709
 8467SOL     OW25643   5.524   6.632   2.742
 8467SOL    HW125644   5.472   6.627   2.662
 8467SOL    HW225645   5.459   6.642   2.812
 8468SOL     OW25646   4.036   6.549   2.123
 8468SOL    HW125647   4.119   6.564   2.077
 8468SOL    HW225648   4.005   6.465   2.090
 8469SOL     OW25649   5.206   6.335   2.583
 8469SOL    HW125650   5.206   6.297   2.670
 8469SOL    HW225651   5.284   6.391   2.581
 8470SOL     OW25652   3.926   5.854   3.367
 8470SOL    HW125653   3.845   5.904   3.372
 8470SOL    HW225654   3.904   5.768   3.402
 8471SOL     OW25655   5.367   6.967   1.952
 8471SOL    HW125656   5.334   0.056   1.966
 8471SOL    HW225657   5.288   6.915   1.937
 8472SOL     OW25658   5.124   5.693   2.305
 8472SOL    HW125659   5.116   5.667   2.213
 8472SOL    HW225660   5.218   5.698   2.321
 8473SOL     OW25661   4.121   6.279   2.334
 8473SOL    HW125662   4.137   6.185   2.348
 8473SOL    HW225663   4.028   6.290   2.352
 8474SOL     OW25664   5.249   5.810   3.585
 8474SOL    HW125665   5.260   5.830   3.678
 8474SOL    HW225666   5.181   5.743   3.583
 8475SOL     OW25667   4.372   5.702   1.963
 8475SOL    HW125668   4.428   5.627   1.984
 8475SOL    HW225669   4.317   5.672   1.891
 8476SOL     OW25670   4.487   5.864   3.618
 8476SOL    HW125671   4.568   5.814   3.615
 8476SOL    HW225672   4.441   5.830   3.695
 8477SOL     OW25673   5.060   6.174   3.296
 8477SOL    HW125674   5.092   6.143   3.381
 8477SOL    HW225675   5.099   6.261   3.286
 8478SOL     OW25676   4.654   6.094   2.760
 8478SOL    HW125677   4.628   6.085   2.668
 8478SOL    HW225678   4.683   6.007   2.786
 8479SOL     OW25679   4.278   5.649   2.357
 8479SOL    HW125680   4.199   5.649   2.410
 8479SOL    HW225681   4.269   5.726   2.300
 8480SOL     OW25682   5.141   6.789   1.922
 8480SOL    HW125683   5.192   6.721   1.966
 8480SOL    HW225684   5.058   6.747   1.901
 8481SOL     OW25685   4.012   5.634   2.048
 8481SOL    HW125686   4.070   5.699   2.007
 8481SOL    HW225687   4.072   5.573   2.091
 8482SOL     OW25688   4.668   5.836   2.316
 8482SOL    HW125689   4.643   5.874   2.232
 8482SOL    HW225690   4.762   5.851   2.323
 8483SOL     OW25691   4.804   6.272   3.320
 8483SOL    HW125692   4.739   6.203   3.323
 8483SOL    HW225693   4.888   6.226   3.313
 8484SOL     OW25694   5.006   0.153   2.604
 8484SOL    HW125695   4.966   0.224   2.554
 8484SOL    HW225696   4.993   0.177   2.696
 8485SOL     OW25697   4.197   6.711   2.598
 8485SOL    HW125698   4.127   6.705   2.663
 8485SOL    HW225699   4.152   6.714   2.514
 8486SOL     OW25700   4.749   6.117   1.889
 8486SOL    HW125701   4.706   6.200   1.870
 8486SOL    HW225702   4.813   6.139   1.957
 8487SOL     OW25703   3.810   6.141   3.254
 8487SOL    HW125704   3.902   6.140   3.228
 8487SOL    HW225705   3.804   6.210   3.319
 8488SOL     OW25706   4.281   5.814   3.035
 8488SOL    HW125707   4.322   5.741   3.081
 8488SOL    HW225708   4.189   5.810   3.062
 8489SOL     OW25709   4.590   6.042   2.499
 8489SOL    HW125710   4.547   6.099   2.435
 8489SOL    HW225711   4.613   5.964   2.450
 8490SOL     OW25712   4.743   5.641   2.608
 8490SOL    HW125713   4.683   5.636   2.533
 8490SOL    HW225714   4.718   5.567   2.663
 8491SOL     OW25715   5.160   6.729   2.717
 8491SOL    HW125716   5.087   6.667   2.720
 8491SOL    HW225717   5.181   6.737   2.624
 8492SOL     OW25718   5.190   6.194   2.826
 8492SOL    HW125719   5.132   6.118   2.830
 8492SOL    HW225720   5.246   6.185   2.903
 8493SOL     OW25721   5.564   6.391   2.247
 8493SOL    HW125722   5.622   6.343   2.306
 8493SOL    HW225723   5.541   6.327   2.179
 8494SOL     OW25724   5.413   6.828   2.508
 8494SOL    HW125725   5.505   6.843   2.529
 8494SOL    HW225726   5.369   6.910   2.532
 8495SOL     OW25727   5.117   6.159   1.933
 8495SOL    HW125728   5.056   6.137   2.003
 8495SOL    HW225729   5.202   6.129   1.965
 8496SOL     OW25730   4.249   5.847   2.171
 8496SOL    HW125731   4.301   5.804   2.103
 8496SOL    HW225732   4.221   5.930   2.131
 8497SOL     OW25733   5.476   6.810   3.430
 8497SOL    HW125734   5.553   6.765   3.465
 8497SOL    HW225735   5.500   6.903   3.433
 8498SOL     OW25736   4.795   6.893   3.183
 8498SOL    HW125737   4.723   6.876   3.243
 8498SOL    HW225738   4.874   6.876   3.235
 8499SOL     OW25739   4.867   6.762   2.956
 8499SOL    HW125740   4.832   6.808   3.032
 8499SOL    HW225741   4.802   6.777   2.887
 8500SOL     OW25742   5.342   6.681   2.943
 8500SOL    HW125743   5.324   6.734   3.021
 8500SOL    HW225744   5.268   6.698   2.885
 8501SOL     OW25745   4.643   5.677   3.253
 8501SOL    HW125746   4.665   5.660   3.161
 8501SOL    HW225747   4.722   5.717   3.289
 8502SOL     OW25748   4.695   6.699   3.603
 8502SOL    HW125749   4.601   6.707   3.619
 8502SOL    HW225750   4.702   6.628   3.540
 8503SOL     OW25751   4.430   6.643   2.228
 8503SOL    HW125752   4.420   6.630   2.322
 8503SOL    HW225753   4.508   6.593   2.204
 8504SOL     OW25754   4.145   6.405   3.115
 8504SOL    HW125755   4.212   6.414   3.182
 8504SOL    HW225756   4.111   6.317   3.128
 8505SOL     OW25757   4.987   5.959   3.144
 8505SOL    HW125758   5.019   6.037   3.189
 8505SOL    HW225759   4.896   5.980   3.122
 8506SOL     OW25760   4.056   6.708   2.359
 8506SOL    HW125761   4.107   6.774   2.311
 8506SOL    HW225762   4.048   6.635   2.298
 8507SOL     OW25763   4.269   6.116   2.722
 8507SOL    HW125764   4.283   6.175   2.647
 8507SOL    HW225765   4.337   6.140   2.784
 8508SOL     OW25766   5.301   6.205   2.347
 8508SOL    HW125767   5.252   6.250   2.416
 8508SOL    HW225768   5.349   6.275   2.302
 8509SOL     OW25769   4.142   6.330   3.468
 8509SOL    HW125770   4.206   6.371   3.410
 8509SOL    HW225771   4.178   6.243   3.485
 8510SOL     OW25772   5.334   6.367   3.550
 8510SOL    HW125773   5.247   6.407   3.544
 8510SOL    HW225774   5.385   6.409   3.481
 8511SOL     OW25775   4.720   5.721   3.616
 8511SOL    HW125776   4.778   5.794   3.595
 8511SOL    HW225777   4.769   5.643   3.591
 8512SOL     OW25778   4.220   5.621   3.614
 8512SOL    HW125779   4.172   5.569   3.550
 8512SOL    HW225780   4.165   5.697   3.630
 8513SOL     OW25781   4.309   6.454   2.897
 8513SOL    HW125782   4.326   6.548   2.890
 8513SOL    HW225783   4.249   6.445   2.972
 8514SOL     OW25784   5.073   6.440   2.883
 8514SOL    HW125785   4.985   6.428   2.846
 8514SOL    HW225786   5.117   6.356   2.869
 8515SOL     OW25787   4.922   6.113   2.123
 8515SOL    HW125788   4.931   6.035   2.177
 8515SOL    HW225789   4.880   6.177   2.180
 8516SOL     OW25790   4.019   5.783   3.109
 8516SOL    HW125791   3.983   5.813   3.192
 8516SOL    HW225792   4.003   5.689   3.108
 8517SOL     OW25793   3.778   6.897   3.148
 8517SOL    HW125794   3.817   6.842   3.217
 8517SOL    HW225795   3.771   6.984   3.188
 8518SOL     OW25796   4.444   6.212   2.914
 8518SOL    HW125797   4.521   6.202   2.857
 8518SOL    HW225798   4.414   6.301   2.898
 8519SOL     OW25799   5.463   6.547   3.719
 8519SOL    HW125800   5.420   6.478   3.669
 8519SOL    HW225801   5.405   6.561   3.794
 8520SOL     OW25802   4.035   5.647   2.487
 8520SOL    HW125803   4.010   5.737   2.507
 8520SOL    HW225804   4.042   5.604   2.572
 8521SOL     OW25805   5.348   5.967   2.219
 8521SOL    HW125806   5.376   5.901   2.283
 8521SOL    HW225807   5.323   6.043   2.272
 8522SOL     OW25808   4.753   6.342   2.819
 8522SOL    HW125809   4.744   6.359   2.913
 8522SOL    HW225810   4.727   6.251   2.808
 8523SOL     OW25811   5.589   0.059   3.456
 8523SOL    HW125812   5.631   0.134   3.415
 8523SOL    HW225813   5.636   0.047   3.539
 8524SOL     OW25814   4.076   6.507   3.669
 8524SOL    HW125815   4.152   6.515   3.726
 8524SOL    HW225816   4.101   6.442   3.604
 8525SOL     OW25817   5.248   5.858   1.987
 8525SOL    HW125818   5.186   5.792   2.017
 8525SOL    HW225819   5.284   5.895   2.067
 8526SOL     OW25820   5.008   6.408   1.885
 8526SOL    HW125821   5.051   6.323   1.893
 8526SOL    HW225822   5.041   6.444   1.803
 8527SOL     OW25823   4.030   6.395   2.806
 8527SOL    HW125824   4.123   6.413   2.794
 8527SOL    HW225825   4.026   6.305   2.838
 8528SOL     OW25826   4.049   6.118   2.875
 8528SOL    HW125827   4.013   6.030   2.863
 8528SOL    HW225828   4.126   6.121   2.818
 8529SOL     OW25829   4.859   5.957   3.549
 8529SOL    HW125830   4.811   6.011   3.612
 8529SOL    HW225831   4.945   5.998   3.543
 8530SOL     OW25832   4.884   5.782   3.335
 8530SOL    HW125833   4.873   5.845   3.406
 8530SOL    HW225834   4.927   5.832   3.265
 8531SOL     OW25835   3.756   6.893   2.035
 8531SOL    HW125836   3.669   6.919   2.006
 8531SOL    HW225837   3.742   6.811   2.082
 8532SOL     OW25838   4.695   6.370   3.084
 8532SOL    HW125839   4.755   6.352   3.157
 8532SOL    HW225840   4.613   6.327   3.110
 8533SOL     OW25841   3.761   6.138   2.979
 8533SOL    HW125842   3.842   6.131   2.928
 8533SOL    HW225843   3.790   6.137   3.070
 8534SOL     OW25844   3.915   6.109   3.595
 8534SOL    HW125845   3.965   6.061   3.529
 8534SOL    HW225846   3.880   6.185   3.548
 8535SOL     OW25847   5.106   6.520   3.519
 8535SOL    HW125848   5.133   6.611   3.513
 8535SOL    HW225849   5.102   6.490   3.428
 8536SOL     OW25850   4.542   6.155   2.230
 8536SOL    HW125851   4.548   6.081   2.170
 8536SOL    HW225852   4.467   6.206   2.199
 8537SOL     OW25853   5.363   6.184   3.039
 8537SOL    HW125854   5.354   6.127   3.115
 8537SOL    HW225855   5.452   6.168   3.006
 8538SOL     OW25856   4.441   6.028   3.113
 8538SOL    HW125857   4.381   5.957   3.089
 8538SOL    HW225858   4.432   6.092   3.042
 8539SOL     OW25859   4.180   6.076   2.039
 8539SOL    HW125860   4.241   6.145   2.065
 8539SOL    HW225861   4.095   6.120   2.032
 8540SOL     OW25862   3.897   6.731   3.338
 8540SOL    HW125863   3.882   6.683   3.419
 8540SOL    HW225864   3.902   6.664   3.271
 8541SOL     OW25865   5.059   6.622   3.083
 8541SOL    HW125866   5.079   6.558   3.016
 8541SOL    HW225867   4.991   6.677   3.045
 8542SOL     OW25868   5.043   6.446   2.161
 8542SOL    HW125869   4.972   6.413   2.217
 8542SOL    HW225870   5.012   6.431   2.072
 8543SOL     OW25871   3.807   6.860   2.879
 8543SOL    HW125872   3.792   6.870   2.973
 8543SOL    HW225873   3.736   6.803   2.849
 8544SOL     OW25874   5.448   5.745   2.365
 8544SOL    HW125875   5.517   5.728   2.301
 8544SOL    HW225876   5.431   5.659   2.405
 8545SOL     OW25877   5.001   6.511   2.538
 8545SOL    HW125878   5.074   6.450   2.549
 8545SOL    HW225879   5.038   6.582   2.486
 8546SOL     OW25880   4.535   6.842   3.281
 8546SOL    HW125881   4.508   6.880   3.365
 8546SOL    HW225882   4.466   6.869   3.220
 8547SOL     OW25883   5.567   5.755   2.827
 8547SOL    HW125884   5.596   5.667   2.803
 8547SOL    HW225885   5.480   5.763   2.788
 8548SOL     OW25886   3.979   5.898   2.576
 8548SOL    HW125887   3.893   5.932   2.553
 8548SOL    HW225888   3.979   5.894   2.671
 8549SOL     OW25889   4.982   0.209   1.861
 8549SOL    HW125890   4.973   0.150   1.936
 8549SOL    HW225891   4.894   0.217   1.825
 8550SOL     OW25892   4.550   6.578   3.232
 8550SOL    HW125893   4.602   6.563   3.153
 8550SOL    HW225894   4.551   6.673   3.244
 8551SOL     OW25895   4.642   6.496   2.146
 8551SOL    HW125896   4.707   6.535   2.087
 8551SOL    HW225897   4.691   6.429   2.195
 8552SOL     OW25898   4.122   6.896   3.326
 8552SOL    HW125899   4.085   6.977   3.359
 8552SOL    HW225900   4.055   6.830   3.342
 8553SOL     OW25901   5.321   6.850   3.179
 8553SOL    HW125902   5.393   6.831   3.239
 8553SOL    HW225903   5.274   6.922   3.221
 8554SOL     OW25904   4.789   6.709   2.594
 8554SOL    HW125905   4.712   6.658   2.621
 8554SOL    HW225906   4.851   6.643   2.562
 8555SOL     OW25907   4.750   5.829   2.828
 8555SOL    HW125908   4.747   5.782   2.744
 8555SOL    HW225909   4.744   5.760   2.894
 8556SOL     OW25910   5.453   5.977   3.243
 8556SOL    HW125911   5.525   6.040   3.242
 8556SOL    HW225912   5.482   5.907   3.184
 8557SOL     OW25913   3.832   6.610   3.576
 8557SOL    HW125914   3.758   6.587   3.633
 8557SOL    HW225915   3.909   6.577   3.622
 8558SOL     OW25916   4.401   5.780   3.361
 8558SOL    HW125917   4.485   5.757   3.322
 8558SOL    HW225918   4.423   5.813   3.448
 8559SOL     OW25919   3.806   5.912   1.892
 8559SOL    HW125920   3.720   5.893   1.855
 8559SOL    HW225921   3.835   5.990   1.846
 8560SOL     OW25922   5.152   6.437   3.262
 8560SOL    HW125923   5.104   6.499   3.207
 8560SOL    HW225924   5.241   6.439   3.227
 8561SOL     OW25925   3.784   5.739   2.161
 8561SOL    HW125926   3.772   5.818   2.108
 8561SOL    HW225927   3.869   5.705   2.135
 8562SOL     OW25928   4.344   6.413   3.299
 8562SOL    HW125929   4.403   6.486   3.279
 8562SOL    HW225930   4.401   6.337   3.305
 8563SOL     OW25931   4.444   6.143   3.561
 8563SOL    HW125932   4.489   6.200   3.623
 8563SOL    HW225933   4.459   6.054   3.594
 8564SOL     OW25934   5.210   6.775   3.505
 8564SOL    HW125935   5.204   6.799   3.597
 8564SOL    HW225936   5.303   6.789   3.483
 8565SOL     OW25937   5.388   6.461   3.114
 8565SOL    HW125938   5.383   6.376   3.070
 8565SOL    HW225939   5.377   6.525   3.044
 8566SOL     OW25940   4.940   5.906   2.318
 8566SOL    HW125941   5.001   5.832   2.313
 8566SOL    HW225942   4.969   5.956   2.394
 8567SOL     OW25943   4.308   6.320   2.537
 8567SOL    HW125944   4.350   6.405   2.522
 8567SOL    HW225945   4.245   6.311   2.466
 8568SOL     OW25946   5.479   5.949   3.516
 8568SOL    HW125947   5.466   5.965   3.422
 8568SOL    HW225948   5.405   5.892   3.540
 8569SOL     OW25949   5.463   6.520   3.369
 8569SOL    HW125950   5.461   6.616   3.376
 8569SOL    HW225951   5.450   6.503   3.276
 8570SOL     OW25952   4.594   6.554   2.717
 8570SOL    HW125953   4.644   6.480   2.751
 8570SOL    HW225954   4.565   6.602   2.795
 8571SOL     OW25955   4.817   6.588   1.959
 8571SOL    HW125956   4.781   6.632   1.882
 8571SOL    HW225957   4.878   6.524   1.923
 8572SOL     OW25958   3.940   6.920   3.673
 8572SOL    HW125959   3.884   6.844   3.688
 8572SOL    HW225960   3.946   6.963   3.758
 8573SOL     OW25961   3.830   6.823   2.536
 8573SOL    HW125962   3.853   6.767   2.610
 8573SOL    HW225963   3.887   6.792   2.465
 8574SOL     OW25964   4.422   6.972   3.496
 8574SOL    HW125965   4.331   6.977   3.526
 8574SOL    HW225966   4.441   0.059   3.462
 8575SOL     OW25967   5.535   5.767   3.098
 8575SOL    HW125968   5.540   5.672   3.111
 8575SOL    HW225969   5.547   5.779   3.004
 8576SOL     OW25970   4.151   6.018   2.387
 8576SOL    HW125971   4.182   5.947   2.331
 8576SOL    HW225972   4.101   5.973   2.455
 8577SOL     OW25973   5.383   0.036   2.994
 8577SOL    HW125974   5.325   0.021   2.919
 8577SOL    HW225975   5.368   6.961   3.051
 8578SOL     OW25976   4.061   6.147   3.155
 8578SOL    HW125977   4.114   6.088   3.209
 8578SOL    HW225978   4.077   6.117   3.066
 8579SOL     OW25979   5.152   5.816   2.979
 8579SOL    HW125980   5.170   5.732   3.020
 8579SOL    HW225981   5.102   5.865   3.044
 8580SOL     OW25982   4.733   5.602   2.995
 8580SOL    HW125983   4.678   5.537   2.952
 8580SOL    HW225984   4.820   5.563   2.997
 8581SOL     OW25985   4.475   6.910   2.127
 8581SOL    HW125986   4.457   6.819   2.150
 8581SOL    HW225987   4.513   6.947   2.207
 8582SOL     OW25988   5.083   5.636   2.036
 8582SOL    HW125989   5.118   5.565   1.982
 8582SOL    HW225990   4.994   5.610   2.056
 8583SOL     OW25991   5.020   6.050   2.539
 8583SOL    HW125992   4.968   6.130   2.542
 8583SOL    HW225993   5.015   6.014   2.628
 8584SOL     OW25994   5.308   5.779   2.746
 8584SOL    HW125995   5.253   5.805   2.820
 8584SOL    HW225996   5.308   5.856   2.689
 8585SOL     OW25997   3.761   6.647   2.174
 8585SOL    HW125998   3.854   6.644   2.154
 8585SOL    HW225999   3.738   6.557   2.196
 8586SOL     OW26000   3.944   6.211   3.855
 8586SOL    HW126001   3.856   6.203   3.891
 8586SOL    HW226002   3.934   6.187   3.763
 8587SOL     OW26003   3.948   5.871   4.717
 8587SOL    HW126004   3.976   5.836   4.801
 8587SOL    HW226005   3.859   5.838   4.705
 8588SOL     OW26006   3.721   5.971   4.363
 8588SOL    HW126007   3.641   5.998   4.407
 8588SOL    HW226008   3.696   5.894   4.312
 8589SOL     OW26009   4.290   6.878   4.907
 8589SOL    HW126010   4.222   6.903   4.844
 8589SOL    HW226011   4.246   6.883   4.992
 8590SOL     OW26012   5.270   0.052   4.417
 8590SOL    HW126013   5.253   0.045   4.511
 8590SOL    HW226014   5.190   0.090   4.381
 8591SOL     OW26015   4.856   6.283   4.417
 8591SOL    HW126016   4.903   6.365   4.407
 8591SOL    HW226017   4.808   6.293   4.499
 8592SOL     OW26018   5.506   6.180   3.947
 8592SOL    HW126019   5.477   6.176   3.856
 8592SOL    HW226020   5.463   6.105   3.989
 8593SOL     OW26021   4.491   6.752   4.755
 8593SOL    HW126022   4.426   6.789   4.815
 8593SOL    HW226023   4.477   6.800   4.673
 8594SOL     OW26024   4.604   6.345   5.551
 8594SOL    HW126025   4.587   6.413   5.616
 8594SOL    HW226026   4.625   6.393   5.471
 8595SOL     OW26027   4.414   6.579   4.365
 8595SOL    HW126028   4.479   6.573   4.434
 8595SOL    HW226029   4.343   6.631   4.403
 8596SOL     OW26030   4.418   6.732   5.537
 8596SOL    HW126031   4.450   6.819   5.560
 8596SOL    HW226032   4.355   6.747   5.467
 8597SOL     OW26033   4.065   0.002   4.782
 8597SOL    HW126034   3.988   6.963   4.741
 8597SOL    HW226035   4.105   0.054   4.712
 8598SOL     OW26036   4.176   5.977   5.199
 8598SOL    HW126037   4.252   5.919   5.209
 8598SOL    HW226038   4.101   5.922   5.221
 8599SOL     OW26039   5.327   6.026   4.469
 8599SOL    HW126040   5.255   6.044   4.409
 8599SOL    HW226041   5.327   6.102   4.528
 8600SOL     OW26042   3.980   6.678   4.619
 8600SOL    HW126043   3.978   6.590   4.655
 8600SOL    HW226044   3.924   6.730   4.677
 8601SOL     OW26045   4.296   6.565   3.865
 8601SOL    HW126046   4.342   6.613   3.797
 8601SOL    HW226047   4.338   6.593   3.947
 8602SOL     OW26048   5.319   5.714   5.187
 8602SOL    HW126049   5.346   5.794   5.141
 8602SOL    HW226050   5.297   5.744   5.276
 8603SOL     OW26051   3.844   6.241   4.287
 8603SOL    HW126052   3.813   6.153   4.308
 8603SOL    HW226053   3.834   6.291   4.368
 8604SOL     OW26054   5.412   6.500   4.367
 8604SOL    HW126055   5.498   6.461   4.349
 8604SOL    HW226056   5.393   6.554   4.290
 8605SOL     OW26057   5.374   6.690   4.149
 8605SOL    HW126058   5.460   6.686   4.106
 8605SOL    HW226059   5.387   6.745   4.225
 8606SOL     OW26060   3.853   6.331   5.308
 8606SOL    HW126061   3.945   6.358   5.310
 8606SOL    HW226062   3.805   6.413   5.318
 8607SOL     OW26063   5.029   6.813   5.159
 8607SOL    HW126064   5.063   6.752   5.093
 8607SOL    HW226065   5.090   6.807   5.232
 8608SOL     OW26066   4.546   5.591   4.238
 8608SOL    HW126067   4.586   5.675   4.214
 8608SOL    HW226068   4.452   5.610   4.242
 8609SOL     OW26069   3.912   6.547   5.003
 8609SOL    HW126070   3.997   6.506   4.987
 8609SOL    HW226071   3.851   6.500   4.946
 8610SOL     OW26072   5.259   6.586   3.922
 8610SOL    HW126073   5.190   6.528   3.954
 8610SOL    HW226074   5.303   6.618   4.001
 8611SOL     OW26075   4.069   5.835   5.559
 8611SOL    HW126076   4.109   5.919   5.583
 8611SOL    HW226077   3.976   5.846   5.576
 8612SOL     OW26078   5.188   6.981   4.676
 8612SOL    HW126079   5.111   0.005   4.728
 8612SOL    HW226080   5.168   6.893   4.643
 8613SOL     OW26081   4.318   6.298   3.997
 8613SOL    HW126082   4.320   6.382   3.952
 8613SOL    HW226083   4.253   6.309   4.066
 8614SOL     OW26084   5.003   5.955   4.659
 8614SOL    HW126085   4.914   5.920   4.667
 8614SOL    HW226086   5.056   5.900   4.717
 8615SOL     OW26087   4.515   6.202   5.170
 8615SOL    HW126088   4.491   6.175   5.258
 8615SOL    HW226089   4.483   6.132   5.113
 8616SOL     OW26090   5.116   6.060   5.402
 8616SOL    HW126091   5.121   6.104   5.487
 8616SOL    HW226092   5.172   5.983   5.412
 8617SOL     OW26093   4.676   6.473   5.313
 8617SOL    HW126094   4.732   6.405   5.276
 8617SOL    HW226095   4.625   6.506   5.239
 8618SOL     OW26096   4.719   5.994   4.954
 8618SOL    HW126097   4.629   6.009   4.983
 8618SOL    HW226098   4.711   5.953   4.868
 8619SOL     OW26099   4.778   6.285   4.147
 8619SOL    HW126100   4.797   6.279   4.241
 8619SOL    HW226101   4.695   6.240   4.136
 8620SOL     OW26102   3.809   6.409   4.501
 8620SOL    HW126103   3.890   6.402   4.553
 8620SOL    HW226104   3.762   6.483   4.539
 8621SOL     OW26105   4.623   5.936   3.920
 8621SOL    HW126106   4.664   5.999   3.861
 8621SOL    HW226107   4.628   5.853   3.874
 8622SOL     OW26108   5.425   6.154   5.554
 8622SOL    HW126109   5.392   6.229   5.504
 8622SOL    HW226110   5.454   6.092   5.488
 8623SOL     OW26111   5.117   6.721   4.279
 8623SOL    HW126112   5.192   6.714   4.220
 8623SOL    HW226113   5.072   6.801   4.250
 8624SOL     OW26114   4.275   5.760   4.623
 8624SOL    HW126115   4.277   5.791   4.714
 8624SOL    HW226116   4.274   5.840   4.570
 8625SOL     OW26117   5.524   6.632   4.604
 8625SOL    HW126118   5.472   6.627   4.524
 8625SOL    HW226119   5.459   6.642   4.674
 8626SOL     OW26120   4.036   6.550   3.985
 8626SOL    HW126121   4.119   6.564   3.939
 8626SOL    HW226122   4.005   6.465   3.952
 8627SOL     OW26123   5.206   6.334   4.445
 8627SOL    HW126124   5.206   6.297   4.532
 8627SOL    HW226125   5.284   6.390   4.442
 8628SOL     OW26126   3.927   5.854   5.228
 8628SOL    HW126127   3.846   5.906   5.235
 8628SOL    HW226128   3.904   5.769   5.265
 8629SOL     OW26129   5.366   6.967   3.814
 8629SOL    HW126130   5.334   0.056   3.828
 8629SOL    HW226131   5.287   6.915   3.799
 8630SOL     OW26132   5.124   5.693   4.167
 8630SOL    HW126133   5.116   5.667   4.075
 8630SOL    HW226134   5.218   5.698   4.183
 8631SOL     OW26135   4.121   6.279   4.196
 8631SOL    HW126136   4.137   6.185   4.210
 8631SOL    HW226137   4.028   6.290   4.214
 8632SOL     OW26138   5.249   5.810   5.447
 8632SOL    HW126139   5.261   5.830   5.540
 8632SOL    HW226140   5.182   5.742   5.445
 8633SOL     OW26141   4.372   5.702   3.825
 8633SOL    HW126142   4.428   5.627   3.845
 8633SOL    HW226143   4.317   5.672   3.753
 8634SOL     OW26144   4.486   5.864   5.480
 8634SOL    HW126145   4.568   5.814   5.477
 8634SOL    HW226146   4.441   5.831   5.557
 8635SOL     OW26147   5.060   6.174   5.158
 8635SOL    HW126148   5.092   6.143   5.243
 8635SOL    HW226149   5.099   6.261   5.148
 8636SOL     OW26150   4.654   6.094   4.622
 8636SOL    HW126151   4.628   6.085   4.530
 8636SOL    HW226152   4.683   6.007   4.647
 8637SOL     OW26153   4.278   5.649   4.219
 8637SOL    HW126154   4.199   5.649   4.272
 8637SOL    HW226155   4.269   5.726   4.162
 8638SOL     OW26156   5.141   6.789   3.784
 8638SOL    HW126157   5.192   6.721   3.828
 8638SOL    HW226158   5.057   6.746   3.764
 8639SOL     OW26159   4.012   5.634   3.911
 8639SOL    HW126160   4.069   5.699   3.868
 8639SOL    HW226161   4.073   5.573   3.952
 8640SOL     OW26162   4.668   5.836   4.178
 8640SOL    HW126163   4.643   5.874   4.094
 8640SOL    HW226164   4.762   5.851   4.185
 8641SOL     OW26165   4.804   6.272   5.182
 8641SOL    HW126166   4.739   6.203   5.185
 8641SOL    HW226167   4.888   6.226   5.176
 8642SOL     OW26168   5.007   0.153   4.465
 8642SOL    HW126169   4.966   0.225   4.417
 8642SOL    HW226170   4.992   0.173   4.557
 8643SOL     OW26171   4.197   6.711   4.460
 8643SOL    HW126172   4.127   6.705   4.525
 8643SOL    HW226173   4.151   6.714   4.376
 8644SOL     OW26174   4.749   6.117   3.751
 8644SOL    HW126175   4.706   6.200   3.732
 8644SOL    HW226176   4.814   6.138   3.819
 8645SOL     OW26177   3.809   6.140   5.117
 8645SOL    HW126178   3.901   6.140   5.090
 8645SOL    HW226179   3.804   6.211   5.182
 8646SOL     OW26180   4.281   5.813   4.896
 8646SOL    HW126181   4.323   5.742   4.944
 8646SOL    HW226182   4.189   5.810   4.924
 8647SOL     OW26183   4.589   6.042   4.361
 8647SOL    HW126184   4.547   6.099   4.297
 8647SOL    HW226185   4.613   5.964   4.312
 8648SOL     OW26186   4.742   5.641   4.470
 8648SOL    HW126187   4.683   5.636   4.395
 8648SOL    HW226188   4.718   5.567   4.525
 8649SOL     OW26189   5.160   6.729   4.580
 8649SOL    HW126190   5.087   6.667   4.583
 8649SOL    HW226191   5.180   6.737   4.487
 8650SOL     OW26192   5.190   6.194   4.688
 8650SOL    HW126193   5.132   6.118   4.693
 8650SOL    HW226194   5.246   6.185   4.765
 8651SOL     OW26195   5.564   6.391   4.109
 8651SOL    HW126196   5.622   6.343   4.168
 8651SOL    HW226197   5.541   6.327   4.041
 8652SOL     OW26198   5.413   6.828   4.370
 8652SOL    HW126199   5.505   6.843   4.391
 8652SOL    HW226200   5.369   6.910   4.394
 8653SOL     OW26201   5.117   6.159   3.795
 8653SOL    HW126202   5.056   6.137   3.865
 8653SOL    HW226203   5.202   6.129   3.827
 8654SOL     OW26204   4.250   5.847   4.033
 8654SOL    HW126205   4.301   5.804   3.965
 8654SOL    HW226206   4.221   5.930   3.993
 8655SOL     OW26207   5.477   6.810   5.291
 8655SOL    HW126208   5.553   6.765   5.327
 8655SOL    HW226209   5.500   6.903   5.295
 8656SOL     OW26210   4.795   6.893   5.045
 8656SOL    HW126211   4.722   6.876   5.105
 8656SOL    HW226212   4.874   6.876   5.097
 8657SOL     OW26213   4.867   6.761   4.818
 8657SOL    HW126214   4.832   6.808   4.895
 8657SOL    HW226215   4.803   6.778   4.749
 8658SOL     OW26216   5.342   6.681   4.805
 8658SOL    HW126217   5.325   6.734   4.883
 8658SOL    HW226218   5.268   6.698   4.747
 8659SOL     OW26219   4.643   5.677   5.114
 8659SOL    HW126220   4.665   5.660   5.023
 8659SOL    HW226221   4.722   5.717   5.151
 8660SOL     OW26222   4.695   6.699   5.465
 8660SOL    HW126223   4.601   6.708   5.481
 8660SOL    HW226224   4.702   6.628   5.402
 8661SOL     OW26225   4.430   6.643   4.090
 8661SOL    HW126226   4.420   6.630   4.184
 8661SOL    HW226227   4.508   6.593   4.066
 8662SOL     OW26228   4.145   6.405   4.977
 8662SOL    HW126229   4.212   6.414   5.044
 8662SOL    HW226230   4.110   6.317   4.990
 8663SOL     OW26231   4.987   5.959   5.006
 8663SOL    HW126232   5.019   6.037   5.052
 8663SOL    HW226233   4.896   5.980   4.984
 8664SOL     OW26234   4.056   6.708   4.221
 8664SOL    HW126235   4.108   6.773   4.173
 8664SOL    HW226236   4.048   6.635   4.160
 8665SOL     OW26237   4.269   6.116   4.584
 8665SOL    HW126238   4.283   6.175   4.509
 8665SOL    HW226239   4.337   6.140   4.646
 8666SOL     OW26240   5.301   6.205   4.208
 8666SOL    HW126241   5.252   6.249   4.278
 8666SOL    HW226242   5.349   6.276   4.164
 8667SOL     OW26243   4.143   6.329   5.330
 8667SOL    HW126244   4.206   6.371   5.272
 8667SOL    HW226245   4.180   6.243   5.348
 8668SOL     OW26246   5.334   6.367   5.412
 8668SOL    HW126247   5.247   6.407   5.406
 8668SOL    HW226248   5.385   6.409   5.343
 8669SOL     OW26249   4.720   5.721   5.478
 8669SOL    HW126250   4.778   5.794   5.457
 8669SOL    HW226251   4.769   5.643   5.453
 8670SOL     OW26252   4.221   5.620   5.476
 8670SOL    HW126253   4.172   5.569   5.412
 8670SOL    HW226254   4.165   5.697   5.492
 8671SOL     OW26255   4.309   6.454   4.759
 8671SOL    HW126256   4.326   6.548   4.753
 8671SOL    HW226257   4.249   6.446   4.834
 8672SOL     OW26258   5.073   6.440   4.745
 8672SOL    HW126259   4.985   6.428   4.708
 8672SOL    HW226260   5.116   6.356   4.731
 8673SOL     OW26261   4.922   6.113   3.985
 8673SOL    HW126262   4.931   6.035   4.040
 8673SOL    HW226263   4.880   6.178   4.042
 8674SOL     OW26264   4.019   5.782   4.971
 8674SOL    HW126265   3.983   5.813   5.054
 8674SOL    HW226266   4.001   5.688   4.971
 8675SOL     OW26267   3.779   6.898   5.011
 8675SOL    HW126268   3.818   6.843   5.079
 8675SOL    HW226269   3.770   6.984   5.051
 8676SOL     OW26270   4.444   6.212   4.776
 8676SOL    HW126271   4.521   6.202   4.719
 8676SOL    HW226272   4.414   6.301   4.760
 8677SOL     OW26273   5.463   6.547   5.581
 8677SOL    HW126274   5.421   6.477   5.531
 8677SOL    HW226275   5.405   6.561   5.656
 8678SOL     OW26276   4.035   5.646   4.349
 8678SOL    HW126277   4.010   5.737   4.369
 8678SOL    HW226278   4.042   5.604   4.434
 8679SOL     OW26279   5.348   5.967   4.081
 8679SOL    HW126280   5.376   5.902   4.145
 8679SOL    HW226281   5.323   6.043   4.134
 8680SOL     OW26282   4.753   6.342   4.681
 8680SOL    HW126283   4.744   6.359   4.775
 8680SOL    HW226284   4.727   6.251   4.670
 8681SOL     OW26285   5.589   0.059   5.317
 8681SOL    HW126286   5.630   0.135   5.276
 8681SOL    HW226287   5.634   0.049   5.401
 8682SOL     OW26288   4.076   6.506   5.532
 8682SOL    HW126289   4.153   6.515   5.588
 8682SOL    HW226290   4.102   6.441   5.466
 8683SOL     OW26291   5.248   5.858   3.849
 8683SOL    HW126292   5.186   5.792   3.879
 8683SOL    HW226293   5.284   5.895   3.929
 8684SOL     OW26294   5.008   6.408   3.747
 8684SOL    HW126295   5.050   6.323   3.755
 8684SOL    HW226296   5.041   6.444   3.665
 8685SOL     OW26297   4.030   6.395   4.668
 8685SOL    HW126298   4.123   6.413   4.657
 8685SOL    HW226299   4.027   6.305   4.700
 8686SOL     OW26300   4.049   6.118   4.737
 8686SOL    HW126301   4.013   6.030   4.725
 8686SOL    HW226302   4.126   6.121   4.681
 8687SOL     OW26303   4.859   5.957   5.411
 8687SOL    HW126304   4.811   6.011   5.474
 8687SOL    HW226305   4.945   5.998   5.406
 8688SOL     OW26306   4.884   5.782   5.197
 8688SOL    HW126307   4.873   5.845   5.268
 8688SOL    HW226308   4.927   5.832   5.127
 8689SOL     OW26309   3.757   6.894   3.897
 8689SOL    HW126310   3.669   6.920   3.868
 8689SOL    HW226311   3.743   6.812   3.944
 8690SOL     OW26312   4.695   6.369   4.946
 8690SOL    HW126313   4.755   6.352   5.019
 8690SOL    HW226314   4.613   6.328   4.973
 8691SOL     OW26315   3.761   6.137   4.841
 8691SOL    HW126316   3.842   6.131   4.790
 8691SOL    HW226317   3.790   6.137   4.932
 8692SOL     OW26318   3.914   6.109   5.457
 8692SOL    HW126319   3.968   6.064   5.392
 8692SOL    HW226320   3.880   6.186   5.411
 8693SOL     OW26321   5.106   6.519   5.381
 8693SOL    HW126322   5.133   6.611   5.375
 8693SOL    HW226323   5.102   6.490   5.290
 8694SOL     OW26324   4.542   6.155   4.092
 8694SOL    HW126325   4.548   6.081   4.032
 8694SOL    HW226326   4.467   6.206   4.061
 8695SOL     OW26327   5.363   6.184   4.901
 8695SOL    HW126328   5.354   6.127   4.977
 8695SOL    HW226329   5.452   6.168   4.868
 8696SOL     OW26330   4.441   6.028   4.975
 8696SOL    HW126331   4.381   5.957   4.951
 8696SOL    HW226332   4.432   6.092   4.904
 8697SOL     OW26333   4.180   6.076   3.901
 8697SOL    HW126334   4.241   6.145   3.927
 8697SOL    HW226335   4.095   6.120   3.894
 8698SOL     OW26336   3.896   6.731   5.201
 8698SOL    HW126337   3.882   6.682   5.282
 8698SOL    HW226338   3.902   6.664   5.133
 8699SOL     OW26339   5.060   6.622   4.945
 8699SOL    HW126340   5.080   6.558   4.877
 8699SOL    HW226341   4.991   6.677   4.907
 8700SOL     OW26342   5.043   6.446   4.023
 8700SOL    HW126343   4.973   6.413   4.079
 8700SOL    HW226344   5.012   6.431   3.934
 8701SOL     OW26345   3.808   6.860   4.741
 8701SOL    HW126346   3.793   6.870   4.835
 8701SOL    HW226347   3.736   6.803   4.712
 8702SOL     OW26348   5.448   5.745   4.227
 8702SOL    HW126349   5.517   5.728   4.163
 8702SOL    HW226350   5.431   5.660   4.267
 8703SOL     OW26351   5.001   6.511   4.400
 8703SOL    HW126352   5.074   6.450   4.411
 8703SOL    HW226353   5.038   6.582   4.348
 8704SOL     OW26354   4.534   6.842   5.143
 8704SOL    HW126355   4.508   6.880   5.227
 8704SOL    HW226356   4.466   6.870   5.082
 8705SOL     OW26357   5.567   5.755   4.689
 8705SOL    HW126358   5.596   5.667   4.665
 8705SOL    HW226359   5.480   5.763   4.650
 8706SOL     OW26360   3.979   5.897   4.438
 8706SOL    HW126361   3.893   5.932   4.415
 8706SOL    HW226362   3.979   5.894   4.533
 8707SOL     OW26363   4.980   0.209   3.724
 8707SOL    HW126364   4.977   0.148   3.797
 8707SOL    HW226365   4.890   0.211   3.690
 8708SOL     OW26366   4.550   6.578   5.094
 8708SOL    HW126367   4.602   6.564   5.014
 8708SOL    HW226368   4.551   6.673   5.107
 8709SOL     OW26369   4.642   6.496   4.007
 8709SOL    HW126370   4.707   6.535   3.949
 8709SOL    HW226371   4.691   6.430   4.057
 8710SOL     OW26372   4.121   6.897   5.185
 8710SOL    HW126373   4.086   6.977   5.223
 8710SOL    HW226374   4.054   6.831   5.202
 8711SOL     OW26375   5.321   6.850   5.041
 8711SOL    HW126376   5.392   6.831   5.102
 8711SOL    HW226377   5.274   6.923   5.083
 8712SOL     OW26378   4.789   6.708   4.455
 8712SOL    HW126379   4.712   6.658   4.483
 8712SOL    HW226380   4.851   6.642   4.424
 8713SOL     OW26381   4.750   5.829   4.690
 8713SOL    HW126382   4.747   5.782   4.606
 8713SOL    HW226383   4.744   5.760   4.756
 8714SOL     OW26384   5.453   5.977   5.104
 8714SOL    HW126385   5.525   6.040   5.104
 8714SOL    HW226386   5.482   5.907   5.046
 8715SOL     OW26387   3.832   6.607   5.437
 8715SOL    HW126388   3.758   6.586   5.495
 8715SOL    HW226389   3.909   6.576   5.484
 8716SOL     OW26390   4.401   5.779   5.223
 8716SOL    HW126391   4.485   5.757   5.184
 8716SOL    HW226392   4.423   5.813   5.310
 8717SOL     OW26393   3.805   5.912   3.755
 8717SOL    HW126394   3.720   5.892   3.716
 8717SOL    HW226395   3.835   5.991   3.709
 8718SOL     OW26396   5.152   6.437   5.124
 8718SOL    HW126397   5.104   6.499   5.069
 8718SOL    HW226398   5.241   6.439   5.089
 8719SOL     OW26399   3.784   5.739   4.023
 8719SOL    HW126400   3.771   5.818   3.969
 8719SOL    HW226401   3.869   5.705   3.996
 8720SOL     OW26402   4.344   6.414   5.161
 8720SOL    HW126403   4.403   6.487   5.141
 8720SOL    HW226404   4.402   6.337   5.167
 8721SOL     OW26405   4.443   6.143   5.423
 8721SOL    HW126406   4.489   6.201   5.484
 8721SOL    HW226407   4.459   6.055   5.456
 8722SOL     OW26408   5.210   6.775   5.367
 8722SOL    HW126409   5.203   6.799   5.459
 8722SOL    HW226410   5.303   6.789   5.345
 8723SOL     OW26411   5.388   6.461   4.976
 8723SOL    HW126412   5.383   6.376   4.932
 8723SOL    HW226413   5.377   6.525   4.906
 8724SOL     OW26414   4.940   5.906   4.180
 8724SOL    HW126415   5.001   5.832   4.175
 8724SOL    HW226416   4.969   5.956   4.256
 8725SOL     OW26417   4.308   6.319   4.399
 8725SOL    HW126418   4.350   6.404   4.384
 8725SOL    HW226419   4.245   6.311   4.328
 8726SOL     OW26420   5.479   5.949   5.377
 8726SOL    HW126421   5.466   5.966   5.284
 8726SOL    HW226422   5.405   5.892   5.402
 8727SOL     OW26423   5.463   6.520   5.231
 8727SOL    HW126424   5.461   6.616   5.238
 8727SOL    HW226425   5.450   6.503   5.138
 8728SOL     OW26426   4.594   6.554   4.579
 8728SOL    HW126427   4.645   6.481   4.613
 8728SOL    HW226428   4.565   6.602   4.657
 8729SOL     OW26429   4.817   6.588   3.821
 8729SOL    HW126430   4.781   6.633   3.744
 8729SOL    HW226431   4.878   6.524   3.785
 8730SOL     OW26432   3.943   6.918   5.537
 8730SOL    HW126433   3.883   6.845   5.553
 8730SOL    HW226434   3.950   6.962   5.622
 8731SOL     OW26435   3.830   6.822   4.397
 8731SOL    HW126436   3.853   6.767   4.472
 8731SOL    HW226437   3.887   6.791   4.327
 8732SOL     OW26438   4.422   6.971   5.358
 8732SOL    HW126439   4.331   6.978   5.389
 8732SOL    HW226440   4.442   0.059   5.324
 8733SOL     OW26441   5.535   5.767   4.960
 8733SOL    HW126442   5.540   5.672   4.973
 8733SOL    HW226443   5.547   5.779   4.865
 8734SOL     OW26444   4.151   6.018   4.249
 8734SOL    HW126445   4.183   5.947   4.192
 8734SOL    HW226446   4.101   5.973   4.317
 8735SOL     OW26447   5.384   0.035   4.855
 8735SOL    HW126448   5.326   0.021   4.780
 8735SOL    HW226449   5.368   6.960   4.912
 8736SOL     OW26450   4.061   6.147   5.017
 8736SOL    HW126451   4.114   6.088   5.071
 8736SOL    HW226452   4.077   6.117   4.927
 8737SOL     OW26453   5.152   5.816   4.841
 8737SOL    HW126454   5.171   5.732   4.882
 8737SOL    HW226455   5.102   5.865   4.906
 8738SOL     OW26456   4.733   5.602   4.857
 8738SOL    HW126457   4.678   5.537   4.813
 8738SOL    HW226458   4.820   5.563   4.859
 8739SOL     OW26459   4.476   6.910   3.989
 8739SOL    HW126460   4.457   6.819   4.012
 8739SOL    HW226461   4.513   6.948   4.069
 8740SOL     OW26462   5.083   5.636   3.898
 8740SOL    HW126463   5.118   5.566   3.844
 8740SOL    HW226464   4.993   5.610   3.918
 8741SOL     OW26465   5.020   6.050   4.401
 8741SOL    HW126466   4.968   6.130   4.404
 8741SOL    HW226467   5.015   6.014   4.490
 8742SOL     OW26468   5.308   5.779   4.608
 8742SOL    HW126469   5.253   5.805   4.682
 8742SOL    HW226470   5.308   5.856   4.551
 8743SOL     OW26471   3.761   6.647   4.036
 8743SOL    HW126472   3.855   6.644   4.016
 8743SOL    HW226473   3.738   6.557   4.057
 8744SOL     OW26474   3.943   6.210   5.717
 8744SOL    HW126475   3.855   6.203   5.753
 8744SOL    HW226476   3.934   6.187   5.625
 8745SOL     OW26477   3.945   5.881   6.582
 8745SOL    HW126478   3.978   5.840   6.661
 8745SOL    HW226479   3.858   5.843   6.570
 8746SOL     OW26480   3.721   5.972   6.226
 8746SOL    HW126481   3.640   6.000   6.269
 8746SOL    HW226482   3.696   5.894   6.176
 8747SOL     OW26483   4.283   6.883   6.767
 8747SOL    HW126484   4.215   6.911   6.706
 8747SOL    HW226485   4.237   6.874   6.851
 8748SOL     OW26486   5.269   0.053   6.277
 8748SOL    HW126487   5.249   0.044   6.370
 8748SOL    HW226488   5.190   0.091   6.239
 8749SOL     OW26489   4.854   6.283   6.281
 8749SOL    HW126490   4.901   6.365   6.271
 8749SOL    HW226491   4.805   6.292   6.362
 8750SOL     OW26492   5.507   6.180   5.809
 8750SOL    HW126493   5.478   6.176   5.718
 8750SOL    HW226494   5.464   6.106   5.852
 8751SOL     OW26495   4.471   6.735   6.618
 8751SOL    HW126496   4.411   6.778   6.680
 8751SOL    HW226497   4.478   6.796   6.545
 8752SOL     OW26498   4.414   6.579   6.226
 8752SOL    HW126499   4.480   6.573   6.296
 8752SOL    HW226500   4.344   6.632   6.265
 8753SOL     OW26501   4.068   0.008   6.639
 8753SOL    HW126502   3.991   6.965   6.601
 8753SOL    HW226503   4.105   0.059   6.567
 8754SOL     OW26504   5.327   6.028   6.331
 8754SOL    HW126505   5.254   6.043   6.270
 8754SOL    HW226506   5.320   6.100   6.394
 8755SOL     OW26507   3.984   6.680   6.487
 8755SOL    HW126508   3.978   6.592   6.525
 8755SOL    HW226509   3.925   6.733   6.540
 8756SOL     OW26510   4.296   6.565   5.727
 8756SOL    HW126511   4.342   6.613   5.658
 8756SOL    HW226512   4.338   6.593   5.808
 8757SOL     OW26513   3.843   6.241   6.150
 8757SOL    HW126514   3.813   6.153   6.171
 8757SOL    HW226515   3.836   6.290   6.232
 8758SOL     OW26516   5.414   6.501   6.226
 8758SOL    HW126517   5.496   6.459   6.202
 8758SOL    HW226518   5.391   6.555   6.150
 8759SOL     OW26519   5.374   6.690   6.010
 8759SOL    HW126520   5.460   6.686   5.968
 8759SOL    HW226521   5.387   6.746   6.086
 8760SOL     OW26522   4.546   5.591   6.100
 8760SOL    HW126523   4.586   5.674   6.076
 8760SOL    HW226524   4.452   5.610   6.105
 8761SOL     OW26525   3.908   6.534   6.840
 8761SOL    HW126526   3.959   6.483   6.777
 8761SOL    HW226527   3.818   6.502   6.830
 8762SOL     OW26528   5.260   6.586   5.784
 8762SOL    HW126529   5.190   6.528   5.816
 8762SOL    HW226530   5.303   6.618   5.863
 8763SOL     OW26531   5.186   6.989   6.533
 8763SOL    HW126532   5.117   0.014   6.596
 8763SOL    HW226533   5.164   6.900   6.507
 8764SOL     OW26534   4.318   6.298   5.859
 8764SOL    HW126535   4.320   6.382   5.814
 8764SOL    HW226536   4.253   6.309   5.928
 8765SOL     OW26537   5.000   5.952   6.518
 8765SOL    HW126538   4.911   5.917   6.528
 8765SOL    HW226539   5.053   5.900   6.579
 8766SOL     OW26540   4.526   6.178   0.062
 8766SOL    HW126541   4.459   6.229   0.108
 8766SOL    HW226542   4.477   6.133   6.993
 8767SOL     OW26543   4.718   5.983   6.800
 8767SOL    HW126544   4.634   6.018   6.831
 8767SOL    HW226545   4.694   5.932   6.722
 8768SOL     OW26546   4.778   6.285   6.010
 8768SOL    HW126547   4.797   6.279   6.103
 8768SOL    HW226548   4.695   6.240   5.999
 8769SOL     OW26549   3.817   6.403   6.370
 8769SOL    HW126550   3.895   6.402   6.426
 8769SOL    HW226551   3.767   6.479   6.400
 8770SOL     OW26552   4.623   5.936   5.783
 8770SOL    HW126553   4.664   5.999   5.723
 8770SOL    HW226554   4.630   5.852   5.737
 8771SOL     OW26555   5.116   6.722   6.141
 8771SOL    HW126556   5.191   6.714   6.083
 8771SOL    HW226557   5.072   6.802   6.113
 8772SOL     OW26558   4.276   5.760   6.483
 8772SOL    HW126559   4.281   5.793   6.573
 8772SOL    HW226560   4.275   5.839   6.429
 8773SOL     OW26561   5.532   6.634   6.453
 8773SOL    HW126562   5.480   6.624   6.374
 8773SOL    HW226563   5.468   6.634   6.525
 8774SOL     OW26564   4.037   6.549   5.847
 8774SOL    HW126565   4.119   6.564   5.801
 8774SOL    HW226566   4.005   6.466   5.813
 8775SOL     OW26567   5.205   6.336   6.305
 8775SOL    HW126568   5.205   6.295   6.391
 8775SOL    HW226569   5.284   6.391   6.305
 8776SOL     OW26570   5.367   6.967   5.676
 8776SOL    HW126571   5.335   0.056   5.690
 8776SOL    HW226572   5.288   6.915   5.661
 8777SOL     OW26573   5.123   5.693   6.029
 8777SOL    HW126574   5.117   5.667   5.937
 8777SOL    HW226575   5.218   5.696   6.046
 8778SOL     OW26576   4.121   6.279   6.058
 8778SOL    HW126577   4.137   6.185   6.072
 8778SOL    HW226578   4.027   6.290   6.076
 8779SOL     OW26579   4.372   5.702   5.687
 8779SOL    HW126580   4.428   5.628   5.708
 8779SOL    HW226581   4.317   5.672   5.615
 8780SOL     OW26582   4.654   6.096   6.484
 8780SOL    HW126583   4.628   6.086   6.392
 8780SOL    HW226584   4.686   6.009   6.509
 8781SOL     OW26585   4.278   5.649   6.081
 8781SOL    HW126586   4.199   5.649   6.134
 8781SOL    HW226587   4.269   5.726   6.024
 8782SOL     OW26588   5.141   6.788   5.646
 8782SOL    HW126589   5.192   6.721   5.690
 8782SOL    HW226590   5.057   6.746   5.626
 8783SOL     OW26591   4.012   5.634   5.772
 8783SOL    HW126592   4.070   5.699   5.731
 8783SOL    HW226593   4.072   5.573   5.815
 8784SOL     OW26594   4.667   5.836   6.041
 8784SOL    HW126595   4.643   5.874   5.956
 8784SOL    HW226596   4.762   5.851   6.048
 8785SOL     OW26597   5.006   0.153   6.322
 8785SOL    HW126598   4.964   0.228   6.280
 8785SOL    HW226599   4.987   0.165   6.416
 8786SOL     OW26600   4.197   6.709   6.323
 8786SOL    HW126601   4.128   6.705   6.389
 8786SOL    HW226602   4.149   6.712   6.239
 8787SOL     OW26603   4.749   6.117   5.613
 8787SOL    HW126604   4.706   6.200   5.594
 8787SOL    HW226605   4.813   6.138   5.681
 8788SOL     OW26606   4.288   5.813   6.756
 8788SOL    HW126607   4.327   5.733   6.792
 8788SOL    HW226608   4.196   5.809   6.783
 8789SOL     OW26609   4.589   6.043   6.223
 8789SOL    HW126610   4.548   6.099   6.157
 8789SOL    HW226611   4.613   5.964   6.175
 8790SOL     OW26612   4.744   5.637   6.327
 8790SOL    HW126613   4.683   5.631   6.253
 8790SOL    HW226614   4.720   5.564   6.384
 8791SOL     OW26615   5.154   6.732   6.442
 8791SOL    HW126616   5.084   6.666   6.446
 8791SOL    HW226617   5.174   6.741   6.349
 8792SOL     OW26618   5.191   6.193   6.546
 8792SOL    HW126619   5.132   6.118   6.556
 8792SOL    HW226620   5.250   6.189   6.621
 8793SOL     OW26621   5.564   6.391   5.972
 8793SOL    HW126622   5.622   6.343   6.030
 8793SOL    HW226623   5.541   6.328   5.904
 8794SOL     OW26624   5.415   6.831   6.229
 8794SOL    HW126625   5.506   6.847   6.252
 8794SOL    HW226626   5.369   6.911   6.254
 8795SOL     OW26627   5.117   6.159   5.657
 8795SOL    HW126628   5.056   6.137   5.727
 8795SOL    HW226629   5.202   6.129   5.689
 8796SOL     OW26630   4.249   5.847   5.895
 8796SOL    HW126631   4.301   5.804   5.827
 8796SOL    HW226632   4.221   5.930   5.855
 8797SOL     OW26633   5.472   6.780   0.162
 8797SOL    HW126634   5.554   6.770   0.210
 8797SOL    HW226635   5.464   6.875   0.149
 8798SOL     OW26636   4.787   6.897   6.933
 8798SOL    HW126637   4.698   6.878   6.963
 8798SOL    HW226638   4.843   6.864   0.004
 8799SOL     OW26639   4.855   6.761   6.700
 8799SOL    HW126640   4.828   6.818   6.772
 8799SOL    HW226641   4.822   6.803   6.621
 8800SOL     OW26642   5.343   6.659   6.644
 8800SOL    HW126643   5.336   6.719   6.719
 8800SOL    HW226644   5.268   6.681   6.589
 8801SOL     OW26645   4.430   6.643   5.951
 8801SOL    HW126646   4.420   6.630   6.046
 8801SOL    HW226647   4.508   6.592   5.928
 8802SOL     OW26648   4.987   5.977   6.856
 8802SOL    HW126649   5.014   6.050   6.912
 8802SOL    HW226650   4.896   5.997   6.833
 8803SOL     OW26651   4.054   6.708   6.083
 8803SOL    HW126652   4.107   6.773   6.037
 8803SOL    HW226653   4.047   6.635   6.022
 8804SOL     OW26654   4.270   6.116   6.444
 8804SOL    HW126655   4.283   6.175   6.370
 8804SOL    HW226656   4.339   6.139   6.506
 8805SOL     OW26657   5.300   6.206   6.069
 8805SOL    HW126658   5.252   6.249   6.140
 8805SOL    HW226659   5.348   6.277   6.026
 8806SOL     OW26660   4.318   6.468   6.625
 8806SOL    HW126661   4.354   6.546   6.583
 8806SOL    HW226662   4.294   6.496   6.713
 8807SOL     OW26663   5.068   6.440   6.605
 8807SOL    HW126664   4.982   6.425   6.568
 8807SOL    HW226665   5.116   6.358   6.590
 8808SOL     OW26666   4.922   6.113   5.847
 8808SOL    HW126667   4.931   6.035   5.901
 8808SOL    HW226668   4.880   6.177   5.904
 8809SOL     OW26669   4.027   5.782   6.831
 8809SOL    HW126670   3.994   5.804   6.918
 8809SOL    HW226671   4.014   5.688   6.823
 8810SOL     OW26672   3.771   6.898   6.877
 8810SOL    HW126673   3.814   6.837   6.937
 8810SOL    HW226674   3.784   6.984   6.918
 8811SOL     OW26675   4.443   6.211   6.636
 8811SOL    HW126676   4.522   6.198   6.582
 8811SOL    HW226677   4.419   6.302   6.620
 8812SOL     OW26678   4.035   5.648   6.209
 8812SOL    HW126679   4.009   5.737   6.230
 8812SOL    HW226680   4.042   5.604   6.294
 8813SOL     OW26681   5.349   5.968   5.943
 8813SOL    HW126682   5.376   5.902   6.006
 8813SOL    HW226683   5.323   6.043   5.996
 8814SOL     OW26684   4.751   6.344   6.553
 8814SOL    HW126685   4.748   6.358   6.648
 8814SOL    HW226686   4.727   6.252   6.541
 8815SOL     OW26687   5.248   5.858   5.711
 8815SOL    HW126688   5.187   5.792   5.741
 8815SOL    HW226689   5.284   5.895   5.791
 8816SOL     OW26690   5.008   6.408   5.609
 8816SOL    HW126691   5.050   6.323   5.617
 8816SOL    HW226692   5.041   6.444   5.527
 8817SOL     OW26693   4.033   6.400   6.557
 8817SOL    HW126694   4.126   6.419   6.542
 8817SOL    HW226695   4.030   6.306   6.573
 8818SOL     OW26696   4.056   6.123   6.605
 8818SOL    HW126697   4.018   6.036   6.591
 8818SOL    HW226698   4.133   6.124   6.548
 8819SOL     OW26699   4.866   5.829   0.060
 8819SOL    HW126700   4.944   5.832   0.116
 8819SOL    HW226701   4.894   5.868   6.978
 8820SOL     OW26702   3.756   6.893   5.757
 8820SOL    HW126703   3.669   6.919   5.729
 8820SOL    HW226704   3.742   6.811   5.806
 8821SOL     OW26705   4.713   6.370   6.828
 8821SOL    HW126706   4.774   6.319   6.882
 8821SOL    HW226707   4.627   6.355   6.869
 8822SOL     OW26708   3.774   6.144   6.717
 8822SOL    HW126709   3.821   6.116   6.639
 8822SOL    HW226710   3.841   6.147   6.786
 8823SOL     OW26711   4.542   6.155   5.955
 8823SOL    HW126712   4.548   6.081   5.894
 8823SOL    HW226713   4.467   6.206   5.924
 8824SOL     OW26714   5.372   6.194   6.751
 8824SOL    HW126715   5.359   6.140   6.830
 8824SOL    HW226716   5.464   6.182   6.728
 8825SOL     OW26717   4.419   6.044   6.848
 8825SOL    HW126718   4.373   5.966   6.819
 8825SOL    HW226719   4.418   6.103   6.773
 8826SOL     OW26720   4.180   6.076   5.763
 8826SOL    HW126721   4.241   6.145   5.789
 8826SOL    HW226722   4.095   6.120   5.756
 8827SOL     OW26723   3.908   6.721   0.037
 8827SOL    HW126724   3.887   6.674   0.118
 8827SOL    HW226725   3.910   6.654   6.970
 8828SOL     OW26726   5.042   6.608   6.824
 8828SOL    HW126727   5.072   6.548   6.755
 8828SOL    HW226728   4.974   6.661   6.783
 8829SOL     OW26729   5.043   6.447   5.885
 8829SOL    HW126730   4.973   6.413   5.941
 8829SOL    HW226731   5.012   6.430   5.796
 8830SOL     OW26732   3.808   6.860   6.607
 8830SOL    HW126733   3.790   6.871   6.700
 8830SOL    HW226734   3.736   6.805   6.575
 8831SOL     OW26735   5.447   5.746   6.089
 8831SOL    HW126736   5.517   5.729   6.026
 8831SOL    HW226737   5.430   5.661   6.130
 8832SOL     OW26738   5.000   6.511   6.262
 8832SOL    HW126739   5.072   6.450   6.273
 8832SOL    HW226740   5.037   6.583   6.210
 8833SOL     OW26741   4.531   6.839   0.015
 8833SOL    HW126742   4.532   6.852   0.110
 8833SOL    HW226743   4.448   6.877   6.987
 8834SOL     OW26744   5.566   5.762   6.560
 8834SOL    HW126745   5.596   5.674   6.537
 8834SOL    HW226746   5.479   5.768   6.522
 8835SOL     OW26747   3.979   5.898   6.300
 8835SOL    HW126748   3.892   5.932   6.276
 8835SOL    HW226749   3.979   5.897   6.396
 8836SOL     OW26750   4.982   0.208   5.582
 8836SOL    HW126751   4.975   0.150   5.658
 8836SOL    HW226752   4.893   0.214   5.549
 8837SOL     OW26753   4.509   6.578   6.937
 8837SOL    HW126754   4.561   6.569   6.857
 8837SOL    HW226755   4.525   6.668   6.965
 8838SOL     OW26756   4.642   6.495   5.869
 8838SOL    HW126757   4.707   6.534   5.811
 8838SOL    HW226758   4.691   6.429   5.919
 8839SOL     OW26759   4.123   6.890   6.990
 8839SOL    HW126760   4.107   6.956   0.057
 8839SOL    HW226761   4.055   6.825   0.004
 8840SOL     OW26762   5.334   6.826   6.858
 8840SOL    HW126763   5.413   6.842   6.911
 8840SOL    HW226764   5.264   6.815   6.922
 8841SOL     OW26765   4.787   6.706   6.315
 8841SOL    HW126766   4.711   6.655   6.344
 8841SOL    HW226767   4.850   6.640   6.285
 8842SOL     OW26768   4.745   5.827   6.544
 8842SOL    HW126769   4.744   5.780   6.460
 8842SOL    HW226770   4.744   5.757   6.610
 8843SOL     OW26771   5.419   6.013   6.953
 8843SOL    HW126772   5.493   6.007   0.014
 8843SOL    HW226773   5.413   5.925   6.915
 8844SOL     OW26774   4.402   5.772   0.087
 8844SOL    HW126775   4.489   5.735   0.073
 8844SOL    HW226776   4.418   5.857   0.127
 8845SOL     OW26777   3.805   5.912   5.616
 8845SOL    HW126778   3.720   5.893   5.579
 8845SOL    HW226779   3.835   5.990   5.570
 8846SOL     OW26780   3.784   5.739   5.885
 8846SOL    HW126781   3.772   5.817   5.831
 8846SOL    HW226782   3.869   5.705   5.859
 8847SOL     OW26783   5.195   6.860   0.331
 8847SOL    HW126784   5.247   6.783   0.354
 8847SOL    HW226785   5.182   6.853   0.237
 8848SOL     OW26786   5.424   6.462   6.829
 8848SOL    HW126787   5.392   6.376   6.800
 8848SOL    HW226788   5.391   6.523   6.764
 8849SOL     OW26789   4.940   5.906   6.042
 8849SOL    HW126790   5.001   5.832   6.037
 8849SOL    HW226791   4.969   5.956   6.118
 8850SOL     OW26792   4.307   6.322   6.262
 8850SOL    HW126793   4.349   6.406   6.246
 8850SOL    HW226794   4.244   6.312   6.190
 8851SOL     OW26795   5.509   6.506   0.088
 8851SOL    HW126796   5.482   6.597   0.104
 8851SOL    HW226797   5.478   6.488   6.999
 8852SOL     OW26798   4.593   6.551   6.442
 8852SOL    HW126799   4.646   6.480   6.478
 8852SOL    HW226800   4.567   6.602   6.519
 8853SOL     OW26801   4.816   6.587   5.683
 8853SOL    HW126802   4.781   6.632   5.606
 8853SOL    HW226803   4.878   6.523   5.647
 8854SOL     OW26804   3.832   6.826   6.258
 8854SOL    HW126805   3.845   6.767   6.333
 8854SOL    HW226806   3.889   6.791   6.190
 8855SOL     OW26807   5.535   5.755   6.837
 8855SOL    HW126808   5.509   5.664   6.831
 8855SOL    HW226809   5.549   5.783   6.746
 8856SOL     OW26810   4.151   6.017   6.111
 8856SOL    HW126811   4.183   5.947   6.054
 8856SOL    HW226812   4.101   5.973   6.179
 8857SOL     OW26813   5.383   0.045   6.713
 8857SOL    HW126814   5.328   0.039   6.635
 8857SOL    HW226815   5.367   6.963   6.760
 8858SOL     OW26816   4.009   6.108   6.882
 8858SOL    HW126817   4.088   6.087   6.931
 8858SOL    HW226818   4.039   6.117   6.791
 8859SOL     OW26819   5.156   5.826   6.703
 8859SOL    HW126820   5.180   5.746   6.751
 8859SOL    HW226821   5.105   5.877   6.766
 8860SOL     OW26822   4.741   5.601   6.703
 8860SOL    HW126823   4.689   5.532   6.660
 8860SOL    HW226824   4.826   5.560   6.717
 8861SOL     OW26825   4.475   6.909   5.850
 8861SOL    HW126826   4.457   6.818   5.873
 8861SOL    HW226827   4.513   6.947   5.929
 8862SOL     OW26828   5.084   5.636   5.760
 8862SOL    HW126829   5.119   5.565   5.707
 8862SOL    HW226830   4.994   5.610   5.779
 8863SOL     OW26831   5.020   6.049   6.263
 8863SOL    HW126832   4.968   6.129   6.267
 8863SOL    HW226833   5.014   6.013   6.351
 8864SOL     OW26834   5.309   5.782   6.472
 8864SOL    HW126835   5.252   5.808   6.544
 8864SOL    HW226836   5.308   5.858   6.413
 8865SOL     OW26837   3.761   6.647   5.898
 8865SOL    HW126838   3.854   6.645   5.878
 8865SOL    HW226839   3.738   6.557   5.920
 8866SOL     OW26840   5.806   0.651   0.140
 8866SOL    HW126841   5.717   0.628   0.165
 8866SOL    HW226842   5.811   0.629   0.047
 8867SOL     OW26843   5.810   0.306   0.993
 8867SOL    HW126844   5.848   0.263   1.070
 8867SOL    HW226845   5.733   0.254   0.972
 8868SOL     OW26846   5.590   0.393   0.633
 8868SOL    HW126847   5.509   0.417   0.679
 8868SOL    HW226848   5.564   0.322   0.574
 8869SOL     OW26849   6.155   1.299   1.188
 8869SOL    HW126850   6.070   1.305   1.143
 8869SOL    HW226851   6.172   1.389   1.217
 8870SOL     OW26852   0.062   1.544   0.763
 8870SOL    HW126853   0.095   1.454   0.765
 8870SOL    HW226854   0.028   1.556   0.674
 8871SOL     OW26855   6.690   0.718   0.685
 8871SOL    HW126856   6.755   0.789   0.679
 8871SOL    HW226857   6.659   0.722   0.775
 8872SOL     OW26858   6.329   1.136   1.052
 8872SOL    HW126859   6.264   1.175   1.110
 8872SOL    HW226860   6.369   1.210   1.006
 8873SOL     OW26861   6.461   0.762   1.826
 8873SOL    HW126862   6.444   0.830   1.891
 8873SOL    HW226863   6.483   0.810   1.746
 8874SOL     OW26864   6.271   0.994   0.645
 8874SOL    HW126865   6.338   0.988   0.713
 8874SOL    HW226866   6.204   1.050   0.682
 8875SOL     OW26867   6.295   1.145   1.817
 8875SOL    HW126868   6.340   1.224   1.847
 8875SOL    HW226869   6.215   1.177   1.776
 8876SOL     OW26870   5.918   1.415   1.067
 8876SOL    HW126871   5.844   1.374   1.022
 8876SOL    HW226872   5.962   1.467   0.999
 8877SOL     OW26873   6.027   0.400   1.482
 8877SOL    HW126874   6.110   0.352   1.491
 8877SOL    HW226875   5.960   0.332   1.487
 8878SOL     OW26876   5.801   1.724   0.472
 8878SOL    HW126877   5.823   1.800   0.526
 8878SOL    HW226878   5.883   1.699   0.430
 8879SOL     OW26879   6.726   1.350   1.707
 8879SOL    HW126880   6.811   1.312   1.685
 8879SOL    HW226881   6.668   1.275   1.714
 8880SOL     OW26882   5.796   1.447   0.528
 8880SOL    HW126883   5.783   1.541   0.541
 8880SOL    HW226884   5.750   1.405   0.601
 8881SOL     OW26885   5.851   1.093   0.888
 8881SOL    HW126886   5.849   1.004   0.924
 8881SOL    HW226887   5.794   1.144   0.945
 8882SOL     OW26888   6.182   1.797   1.423
 8882SOL    HW126889   6.103   1.776   1.473
 8882SOL    HW226890   6.208   1.884   1.453
 8883SOL     OW26891   6.167   0.964   0.146
 8883SOL    HW126892   6.225   0.986   0.073
 8883SOL    HW226893   6.203   1.012   0.221
 8884SOL     OW26894   5.708   0.651   0.558
 8884SOL    HW126895   5.679   0.563   0.582
 8884SOL    HW226896   5.699   0.702   0.639
 8885SOL     OW26897   5.593   1.593   0.134
 8885SOL    HW126898   5.528   1.524   0.123
 8885SOL    HW226899   5.578   1.626   0.222
 8886SOL     OW26900   5.707   0.751   1.580
 8886SOL    HW126901   5.795   0.787   1.583
 8886SOL    HW226902   5.650   0.828   1.578
 8887SOL     OW26903   6.202   1.389   0.740
 8887SOL    HW126904   6.158   1.305   0.748
 8887SOL    HW226905   6.191   1.413   0.648
 8888SOL     OW26906   6.830   1.219   1.430
 8888SOL    HW126907   6.866   1.151   1.373
 8888SOL    HW226908   6.894   1.227   1.500
 8889SOL     OW26909   6.413   0.027   0.523
 8889SOL    HW126910   6.447   0.114   0.505
 8889SOL    HW226911   6.318   0.037   0.524
 8890SOL     OW26912   5.773   0.959   1.283
 8890SOL    HW126913   5.859   0.922   1.267
 8890SOL    HW226914   5.717   0.918   1.217
 8891SOL     OW26915   6.789   1.816   1.620
 8891SOL    HW126916   6.767   1.877   1.549
 8891SOL    HW226917   6.782   1.730   1.580
 8892SOL     OW26918   5.905   0.269   1.784
 8892SOL    HW126919   5.962   0.332   1.829
 8892SOL    HW226920   5.826   0.267   1.836
 8893SOL     OW26921   6.186   0.711   0.265
 8893SOL    HW126922   6.189   0.800   0.228
 8893SOL    HW226923   6.124   0.718   0.337
 8894SOL     OW26924   6.851   0.371   0.885
 8894SOL    HW126925   6.760   0.358   0.910
 8894SOL    HW226926   6.902   0.332   0.955
 8895SOL     OW26927   6.389   0.619   1.454
 8895SOL    HW126928   6.358   0.591   1.540
 8895SOL    HW226929   6.354   0.555   1.393
 8896SOL     OW26930   6.945   0.476   1.691
 8896SOL    HW126931   6.914   0.560   1.722
 8896SOL    HW226932   0.041   0.483   1.692
 8897SOL     OW26933   6.542   0.887   1.587
 8897SOL    HW126934   6.597   0.819   1.549
 8897SOL    HW226935   6.494   0.924   1.514
 8898SOL     OW26936   6.592   0.413   1.232
 8898SOL    HW126937   6.505   0.429   1.268
 8898SOL    HW226938   6.576   0.376   1.145
 8899SOL     OW26939   6.643   0.701   0.420
 8899SOL    HW126940   6.661   0.705   0.514
 8899SOL    HW226941   6.558   0.659   0.413
 8900SOL     OW26942   5.675   0.818   0.776
 8900SOL    HW126943   5.756   0.813   0.829
 8900SOL    HW226944   5.628   0.893   0.811
 8901SOL     OW26945   5.710   1.875   1.584
 8901SOL    HW126946   5.714   1.852   1.677
 8901SOL    HW226947   5.627   1.837   1.554
 8902SOL     OW26948   6.467   0.365   0.214
 8902SOL    HW126949   6.457   0.426   0.141
 8902SOL    HW226950   6.471   0.279   0.172
 8903SOL     OW26951   6.939   1.137   0.534
 8903SOL    HW126952   6.986   1.108   0.456
 8903SOL    HW226953   6.887   1.212   0.504
 8904SOL     OW26954   6.088   0.187   0.912
 8904SOL    HW126955   6.127   0.221   0.992
 8904SOL    HW226956   6.109   0.253   0.845
 8905SOL     OW26957   6.577   1.441   0.479
 8905SOL    HW126958   6.544   1.515   0.428
 8905SOL    HW226959   6.545   1.458   0.568
 8906SOL     OW26960   5.940   1.815   0.873
 8906SOL    HW126961   5.984   1.731   0.877
 8906SOL    HW226962   6.009   1.879   0.891
 8907SOL     OW26963   6.793   1.562   1.505
 8907SOL    HW126964   6.798   1.488   1.565
 8907SOL    HW226965   6.754   1.526   1.426
 8908SOL     OW26966   5.894   0.958   0.226
 8908SOL    HW126967   5.984   0.968   0.195
 8908SOL    HW226968   5.872   0.867   0.208
 8909SOL     OW26969   6.056   1.267   1.738
 8909SOL    HW126970   6.029   1.273   1.646
 8909SOL    HW226971   5.973   1.266   1.786
 8910SOL     OW26972   6.686   1.764   0.235
 8910SOL    HW126973   6.623   1.710   0.283
 8910SOL    HW226974   6.708   1.712   0.158
 8911SOL     OW26975   5.773   0.269   1.521
 8911SOL    HW126976   5.722   0.349   1.510
 8911SOL    HW226977   5.803   0.273   1.612
 8912SOL     OW26978   0.244   1.382   0.031
 8912SOL    HW126979   0.189   1.423   0.098
 8912SOL    HW226980   0.219   1.289   0.033
 8913SOL     OW26981   6.062   1.698   0.378
 8913SOL    HW126982   6.095   1.778   0.418
 8913SOL    HW226983   6.122   1.681   0.306
 8914SOL     OW26984   5.843   1.790   1.227
 8914SOL    HW126985   5.892   1.718   1.266
 8914SOL    HW226986   5.833   1.765   1.135
 8915SOL     OW26987   6.529   1.699   0.896
 8915SOL    HW126988   6.613   1.652   0.904
 8915SOL    HW226989   6.481   1.650   0.829
 8916SOL     OW26990   5.987   0.690   0.465
 8916SOL    HW126991   6.002   0.597   0.483
 8916SOL    HW226992   5.894   0.703   0.483
 8917SOL     OW26993   6.219   0.131   0.104
 8917SOL    HW126994   6.314   0.117   0.113
 8917SOL    HW226995   6.206   0.144   0.010
 8918SOL     OW26996   6.353   0.277   1.769
 8918SOL    HW126997   6.436   0.230   1.765
 8918SOL    HW226998   6.302   0.230   1.835
 8919SOL     OW26999   6.460   1.529   1.194
 8919SOL    HW127000   6.442   1.491   1.107
 8919SOL    HW227001   6.528   1.472   1.231
 8920SOL     OW27002   6.400   1.389   0.950
 8920SOL    HW127003   6.485   1.376   0.908
 8920SOL    HW227004   6.338   1.396   0.878
 8921SOL     OW27005   6.511   0.515   0.899
 8921SOL    HW127006   6.486   0.510   0.806
 8921SOL    HW227007   6.537   0.426   0.922
 8922SOL     OW27008   6.147   0.065   0.496
 8922SOL    HW127009   6.068   0.054   0.549
 8922SOL    HW227010   6.125   0.137   0.436
 8923SOL     OW27011   5.906   0.067   0.198
 8923SOL    HW127012   5.955   0.149   0.209
 8923SOL    HW227013   5.930   0.015   0.274
 8924SOL     OW27014   6.540   0.263   0.459
 8924SOL    HW127015   6.510   0.301   0.376
 8924SOL    HW227016   6.635   0.279   0.459
 8925SOL     OW27017   6.658   0.667   1.462
 8925SOL    HW127018   6.566   0.639   1.464
 8925SOL    HW227019   6.708   0.587   1.480
 8926SOL     OW27020   6.778   1.579   0.800
 8926SOL    HW127021   6.795   1.641   0.729
 8926SOL    HW227022   6.864   1.562   0.838
 8927SOL     OW27023   6.063   1.154   0.730
 8927SOL    HW127024   5.992   1.133   0.791
 8927SOL    HW227025   6.024   1.144   0.644
 8928SOL     OW27026   6.832   1.798   0.605
 8928SOL    HW127027   6.845   1.856   0.531
 8928SOL    HW227028   6.767   1.842   0.660
 8929SOL     OW27029   6.681   0.587   0.017
 8929SOL    HW127030   6.586   0.594   0.033
 8929SOL    HW227031   6.718   0.565   0.102
 8930SOL     OW27032   5.678   0.544   1.404
 8930SOL    HW127033   5.767   0.552   1.370
 8930SOL    HW227034   5.669   0.619   1.464
 8931SOL     OW27035   6.154   0.247   1.179
 8931SOL    HW127036   6.196   0.172   1.221
 8931SOL    HW227037   6.062   0.241   1.205
 8932SOL     OW27038   6.448   0.457   0.642
 8932SOL    HW127039   6.414   0.518   0.577
 8932SOL    HW227040   6.474   0.380   0.591
 8933SOL     OW27041   6.531   0.030   0.779
 8933SOL    HW127042   6.478   0.020   0.700
 8933SOL    HW227043   6.602   6.966   0.768
 8934SOL     OW27044   6.060   1.428   0.152
 8934SOL    HW127045   6.003   1.377   0.209
 8934SOL    HW227046   6.018   1.424   0.066
 8935SOL     OW27047   6.089   0.259   0.304
 8935SOL    HW127048   6.146   0.215   0.241
 8935SOL    HW227049   6.072   0.345   0.265
 8936SOL     OW27050   6.624   1.350   1.325
 8936SOL    HW127051   6.546   1.322   1.373
 8936SOL    HW227052   6.697   1.305   1.368
 8937SOL     OW27053   6.734   1.226   1.096
 8937SOL    HW127054   6.673   1.256   1.163
 8937SOL    HW227055   6.694   1.253   1.013
 8938SOL     OW27056   6.469   0.147   1.389
 8938SOL    HW127057   6.486   0.120   1.299
 8938SOL    HW227058   6.555   0.166   1.426
 8939SOL     OW27059   6.572   1.116   1.732
 8939SOL    HW127060   6.481   1.135   1.754
 8939SOL    HW227061   6.568   1.041   1.673
 8940SOL     OW27062   6.296   1.062   0.373
 8940SOL    HW127063   6.281   1.042   0.465
 8940SOL    HW227064   6.371   1.007   0.349
 8941SOL     OW27065   6.010   0.823   1.253
 8941SOL    HW127066   6.078   0.830   1.320
 8941SOL    HW227067   5.974   0.735   1.264
 8942SOL     OW27068   6.857   0.362   1.288
 8942SOL    HW127069   6.909   0.440   1.309
 8942SOL    HW227070   6.771   0.396   1.264
 8943SOL     OW27071   5.662   1.574   1.358
 8943SOL    HW127072   5.633   1.644   1.300
 8943SOL    HW227073   5.757   1.572   1.349
 8944SOL     OW27074   5.953   1.119   0.486
 8944SOL    HW127075   5.933   1.191   0.426
 8944SOL    HW227076   5.943   1.040   0.433
 8945SOL     OW27077   6.137   0.534   0.859
 8945SOL    HW127078   6.151   0.592   0.784
 8945SOL    HW227079   6.207   0.557   0.920
 8946SOL     OW27080   6.832   1.363   0.419
 8946SOL    HW127081   6.876   1.442   0.451
 8946SOL    HW227082   6.739   1.380   0.435
 8947SOL     OW27083   6.854   1.482   1.139
 8947SOL    HW127084   6.930   1.472   1.197
 8947SOL    HW227085   6.817   1.394   1.133
 8948SOL     OW27086   5.932   1.531   1.308
 8948SOL    HW127087   5.921   1.485   1.225
 8948SOL    HW227088   6.026   1.542   1.317
 8949SOL     OW27089   6.009   0.742   1.607
 8949SOL    HW127090   6.068   0.788   1.547
 8949SOL    HW227091   6.050   0.657   1.620
 8950SOL     OW27092   6.588   0.129   1.750
 8950SOL    HW127093   6.628   0.178   1.678
 8950SOL    HW227094   6.594   0.038   1.724
 8951SOL     OW27095   6.047   0.032   1.760
 8951SOL    HW127096   5.974   6.971   1.770
 8951SOL    HW227097   6.006   0.119   1.763
 8952SOL     OW27098   6.172   0.877   1.032
 8952SOL    HW127099   6.205   0.966   1.034
 8952SOL    HW227100   6.114   0.871   1.108
 8953SOL     OW27101   6.950   0.845   1.028
 8953SOL    HW127102   6.862   0.828   0.994
 8953SOL    HW227103   6.982   0.758   1.055
 8954SOL     OW27104   6.769   0.514   0.263
 8954SOL    HW127105   6.790   0.445   0.326
 8954SOL    HW227106   6.733   0.585   0.316
 8955SOL     OW27107   5.891   0.209   1.249
 8955SOL    HW127108   5.827   0.214   1.320
 8955SOL    HW227109   5.882   0.119   1.215
 8956SOL     OW27110   5.630   1.312   1.273
 8956SOL    HW127111   5.663   1.256   1.344
 8956SOL    HW227112   5.637   1.401   1.309
 8957SOL     OW27113   6.310   0.636   1.054
 8957SOL    HW127114   6.384   0.623   0.994
 8957SOL    HW227115   6.277   0.724   1.032
 8958SOL     OW27116   5.904   0.058   0.620
 8958SOL    HW127117   5.884   0.146   0.652
 8958SOL    HW227118   5.843   0.001   0.666
 8959SOL     OW27119   0.189   0.403   0.373
 8959SOL    HW127120   0.261   0.369   0.425
 8959SOL    HW227121   0.167   0.487   0.415
 8960SOL     OW27122   6.615   0.761   0.958
 8960SOL    HW127123   6.606   0.775   1.052
 8960SOL    HW227124   6.588   0.669   0.945
 8961SOL     OW27125   6.552   1.570   1.709
 8961SOL    HW127126   6.540   1.608   1.623
 8961SOL    HW227127   6.604   1.491   1.694
 8962SOL     OW27128   5.937   0.916   1.810
 8962SOL    HW127129   6.017   0.936   1.859
 8962SOL    HW227130   5.965   0.852   1.744
 8963SOL     OW27131   6.889   0.843   0.030
 8963SOL    HW127132   6.945   0.768   0.011
 8963SOL    HW227133   6.903   0.903   6.957
 8964SOL     OW27134   6.647   1.335   0.857
 8964SOL    HW127135   6.654   1.265   0.792
 8964SOL    HW227136   6.697   1.407   0.819
 8965SOL     OW27137   5.895   0.814   0.946
 8965SOL    HW127138   5.988   0.834   0.938
 8965SOL    HW227139   5.892   0.724   0.977
 8966SOL     OW27140   5.921   0.544   1.014
 8966SOL    HW127141   5.881   0.459   1.000
 8966SOL    HW227142   5.998   0.544   0.957
 8967SOL     OW27143   6.690   0.395   1.669
 8967SOL    HW127144   6.647   0.438   1.743
 8967SOL    HW227145   6.783   0.408   1.685
 8968SOL     OW27146   6.714   0.214   1.478
 8968SOL    HW127147   6.709   0.284   1.542
 8968SOL    HW227148   6.762   0.252   1.404
 8969SOL     OW27149   5.676   1.780   0.944
 8969SOL    HW127150   5.645   1.704   0.896
 8969SOL    HW227151   5.765   1.795   0.911
 8970SOL     OW27152   6.076   1.575   0.904
 8970SOL    HW127153   6.146   1.636   0.927
 8970SOL    HW227154   6.118   1.511   0.846
 8971SOL     OW27155   6.564   0.784   1.224
 8971SOL    HW127156   6.623   0.762   1.296
 8971SOL    HW227157   6.479   0.747   1.249
 8972SOL     OW27158   5.622   0.547   1.122
 8972SOL    HW127159   5.696   0.535   1.063
 8972SOL    HW227160   5.660   0.545   1.210
 8973SOL     OW27161   5.770   0.533   1.731
 8973SOL    HW127162   5.850   0.513   1.682
 8973SOL    HW227163   5.731   0.607   1.685
 8974SOL     OW27164   6.403   0.576   0.387
 8974SOL    HW127165   6.412   0.501   0.327
 8974SOL    HW227166   6.327   0.624   0.352
 8975SOL     OW27167   5.821   1.548   1.722
 8975SOL    HW127168   5.802   1.611   1.791
 8975SOL    HW227169   5.831   1.464   1.768
 8976SOL     OW27170   6.310   0.458   1.256
 8976SOL    HW127171   6.252   0.386   1.232
 8976SOL    HW227172   6.301   0.521   1.184
 8977SOL     OW27173   6.496   1.685   1.466
 8977SOL    HW127174   6.482   1.641   1.382
 8977SOL    HW227175   6.487   1.778   1.445
 8978SOL     OW27176   6.039   0.496   0.177
 8978SOL    HW127177   6.100   0.564   0.205
 8978SOL    HW227178   5.953   0.538   0.183
 8979SOL     OW27179   5.724   1.144   1.475
 8979SOL    HW127180   5.727   1.099   1.559
 8979SOL    HW227181   5.742   1.076   1.410
 8980SOL     OW27182   6.891   1.041   1.226
 8980SOL    HW127183   6.916   0.973   1.163
 8980SOL    HW227184   6.835   1.101   1.176
 8981SOL     OW27185   6.885   0.858   0.311
 8981SOL    HW127186   6.811   0.814   0.353
 8981SOL    HW227187   6.873   0.842   0.218
 8982SOL     OW27188   6.850   1.754   1.112
 8982SOL    HW127189   6.928   1.761   1.057
 8982SOL    HW227190   6.840   1.660   1.126
 8983SOL     OW27191   5.673   1.266   1.009
 8983SOL    HW127192   5.653   1.280   1.102
 8983SOL    HW227193   5.603   1.209   0.977
 8984SOL     OW27194   6.266   1.673   1.745
 8984SOL    HW127195   6.210   1.748   1.728
 8984SOL    HW227196   6.341   1.685   1.687
 8985SOL     OW27197   6.497   0.107   0.126
 8985SOL    HW127198   6.570   0.084   0.068
 8985SOL    HW227199   6.489   0.032   0.185
 8986SOL     OW27200   6.974   1.585   0.501
 8986SOL    HW127201   0.052   1.627   0.465
 8986SOL    HW227202   6.918   1.658   0.528
 8987SOL     OW27203   5.726   1.797   1.843
 8987SOL    HW127204   5.677   1.728   1.888
 8987SOL    HW227205   5.773   1.843   1.912
 8988SOL     OW27206   6.866   0.919   0.669
 8988SOL    HW127207   6.950   0.876   0.684
 8988SOL    HW227208   6.889   0.998   0.619
 8989SOL     OW27209   6.379   1.274   1.421
 8989SOL    HW127210   6.351   1.319   1.501
 8989SOL    HW227211   6.308   1.292   1.358
 8990SOL     OW27212   6.251   1.616   0.199
 8990SOL    HW127213   6.304   1.633   0.121
 8990SOL    HW227214   6.198   1.540   0.175
 8991SOL     OW27215   5.844   0.311   0.712
 8991SOL    HW127216   5.757   0.344   0.689
 8991SOL    HW227217   5.847   0.314   0.807
 8992SOL     OW27218   6.738   1.623   0.002
 8992SOL    HW127219   6.821   1.596   0.042
 8992SOL    HW227220   6.736   1.579   6.917
 8993SOL     OW27221   6.412   1.006   1.377
 8993SOL    HW127222   6.451   1.002   1.289
 8993SOL    HW227223   6.403   1.100   1.395
 8994SOL     OW27224   6.499   0.907   0.291
 8994SOL    HW127225   6.550   0.934   0.215
 8994SOL    HW227226   6.555   0.845   0.337
 8995SOL     OW27227   5.951   1.305   1.493
 8995SOL    HW127228   5.941   1.381   1.435
 8995SOL    HW227229   5.873   1.252   1.477
 8996SOL     OW27230   6.644   1.109   0.709
 8996SOL    HW127231   6.572   1.059   0.747
 8996SOL    HW227232   6.708   1.043   0.681
 8997SOL     OW27233   6.598   0.254   0.948
 8997SOL    HW127234   6.566   0.203   0.873
 8997SOL    HW227235   6.591   0.194   1.022
 8998SOL     OW27236   6.202   1.477   0.485
 8998SOL    HW127237   6.238   1.432   0.409
 8998SOL    HW227238   6.137   1.538   0.449
 8999SOL     OW27239   5.866   1.315   0.307
 8999SOL    HW127240   5.781   1.295   0.268
 8999SOL    HW227241   5.845   1.368   0.384
 9000SOL     OW27242   5.702   1.038   1.729
 9000SOL    HW127243   5.625   1.009   1.778
 9000SOL    HW227244   5.775   0.992   1.769
 9001SOL     OW27245   6.250   0.242   1.514
 9001SOL    HW127246   6.326   0.217   1.462
 9001SOL    HW227247   6.286   0.272   1.597
 9002SOL     OW27248   5.701   0.332   0.035
 9002SOL    HW127249   5.648   0.281   6.973
 9002SOL    HW227250   5.733   0.407   6.984
 9003SOL     OW27251   5.654   0.166   0.297
 9003SOL    HW127252   5.649   0.244   0.243
 9003SOL    HW227253   5.732   0.120   0.266
 9004SOL     OW27254   6.210   0.828   1.436
 9004SOL    HW127255   6.266   0.905   1.421
 9004SOL    HW227256   6.272   0.755   1.445
 9005SOL     OW27257   6.306   0.556   1.702
 9005SOL    HW127258   6.348   0.618   1.761
 9005SOL    HW227259   6.322   0.470   1.742
 9006SOL     OW27260   6.990   1.262   1.646
 9006SOL    HW127261   6.999   1.202   1.721
 9006SOL    HW227262   0.071   1.249   1.596
 9007SOL     OW27263   5.955   1.742   1.568
 9007SOL    HW127264   5.872   1.788   1.552
 9007SOL    HW227265   5.929   1.659   1.607
 9008SOL     OW27266   6.816   0.311   0.448
 9008SOL    HW127267   6.884   0.263   0.400
 9008SOL    HW227268   6.863   0.354   0.520
 9009SOL     OW27269   6.171   0.733   0.672
 9009SOL    HW127270   6.212   0.819   0.659
 9009SOL    HW227271   6.108   0.726   0.600
 9010SOL     OW27272   6.446   1.379   0.027
 9010SOL    HW127273   6.414   1.348   0.112
 9010SOL    HW227274   6.458   1.473   0.039
 9011SOL     OW27275   6.250   1.782   0.937
 9011SOL    HW127276   6.232   1.874   0.919
 9011SOL    HW227277   6.345   1.775   0.934
 9012SOL     OW27278   6.454   0.972   0.855
 9012SOL    HW127279   6.506   0.899   0.890
 9012SOL    HW227280   6.415   1.013   0.932
 9013SOL     OW27281   6.656   0.978   0.082
 9013SOL    HW127282   6.693   1.066   0.070
 9013SOL    HW227283   6.729   0.919   0.065
 9014SOL     OW27284   5.810   1.297   1.851
 9014SOL    HW127285   5.753   1.229   1.816
 9014SOL    HW227286   5.781   1.309   1.941
 9015SOL     OW27287   5.673   1.232   0.667
 9015SOL    HW127288   5.704   1.183   0.744
 9015SOL    HW227289   5.712   1.186   0.592
 9016SOL     OW27290   6.264   1.412   1.624
 9016SOL    HW127291   6.190   1.367   1.665
 9016SOL    HW227292   6.268   1.497   1.669
 9017SOL     OW27293   6.014   0.430   0.523
 9017SOL    HW127294   6.041   0.357   0.467
 9017SOL    HW227295   5.963   0.388   0.593
 9018SOL     OW27296   5.921   0.565   1.291
 9018SOL    HW127297   5.974   0.506   1.344
 9018SOL    HW227298   5.939   0.539   1.201
 9019SOL     OW27299   6.414   1.580   0.679
 9019SOL    HW127300   6.396   1.643   0.608
 9019SOL    HW227301   6.340   1.520   0.677
 9020SOL     OW27302   6.970   0.216   1.080
 9020SOL    HW127303   6.995   0.135   1.124
 9020SOL    HW227304   6.932   0.270   1.150
 9021SOL     OW27305   6.555   0.062   1.133
 9021SOL    HW127306   6.505   0.001   1.079
 9021SOL    HW227307   6.602   0.006   1.195
 9022SOL     OW27308   6.371   1.320   0.302
 9022SOL    HW127309   6.338   1.233   0.323
 9022SOL    HW227310   6.447   1.331   0.359
 9023SOL     OW27311   6.205   1.558   1.287
 9023SOL    HW127312   6.205   1.640   1.335
 9023SOL    HW227313   6.294   1.552   1.251
 9024SOL     OW27314   5.672   1.054   0.373
 9024SOL    HW127315   5.749   1.026   0.322
 9024SOL    HW227316   5.619   0.975   0.381
 9025SOL     OW27317   6.467   1.658   0.362
 9025SOL    HW127318   6.391   1.638   0.307
 9025SOL    HW227319   6.442   1.737   0.410
 9026SOL     OW27320   5.805   0.623   1.994
 9026SOL    HW127321   5.718   0.617   2.033
 9026SOL    HW227322   5.791   0.603   1.901
 9027SOL     OW27323   5.809   0.307   2.856
 9027SOL    HW127324   5.847   0.263   2.932
 9027SOL    HW227325   5.732   0.255   2.835
 9028SOL     OW27326   5.595   0.397   2.492
 9028SOL    HW127327   5.510   0.412   2.534
 9028SOL    HW227328   5.578   0.330   2.425
 9029SOL     OW27329   6.155   1.300   3.050
 9029SOL    HW127330   6.070   1.305   3.006
 9029SOL    HW227331   6.172   1.389   3.079
 9030SOL     OW27332   0.063   1.543   2.624
 9030SOL    HW127333   0.097   1.453   2.623
 9030SOL    HW227334   0.037   1.560   2.534
 9031SOL     OW27335   6.689   0.719   2.547
 9031SOL    HW127336   6.754   0.789   2.540
 9031SOL    HW227337   6.659   0.723   2.638
 9032SOL     OW27338   6.328   1.136   2.913
 9032SOL    HW127339   6.263   1.175   2.971
 9032SOL    HW227340   6.369   1.210   2.868
 9033SOL     OW27341   6.460   0.762   3.688
 9033SOL    HW127342   6.445   0.830   3.754
 9033SOL    HW227343   6.483   0.810   3.608
 9034SOL     OW27344   6.271   0.996   2.505
 9034SOL    HW127345   6.338   0.989   2.573
 9034SOL    HW227346   6.204   1.052   2.543
 9035SOL     OW27347   6.295   1.145   3.678
 9035SOL    HW127348   6.340   1.224   3.709
 9035SOL    HW227349   6.215   1.177   3.638
 9036SOL     OW27350   5.918   1.415   2.929
 9036SOL    HW127351   5.843   1.375   2.883
 9036SOL    HW227352   5.962   1.467   2.862
 9037SOL     OW27353   6.027   0.400   3.344
 9037SOL    HW127354   6.110   0.352   3.353
 9037SOL    HW227355   5.960   0.332   3.350
 9038SOL     OW27356   5.805   1.717   2.330
 9038SOL    HW127357   5.827   1.791   2.386
 9038SOL    HW227358   5.880   1.709   2.270
 9039SOL     OW27359   6.726   1.350   3.569
 9039SOL    HW127360   6.811   1.312   3.546
 9039SOL    HW227361   6.667   1.275   3.576
 9040SOL     OW27362   5.820   1.446   2.398
 9040SOL    HW127363   5.800   1.540   2.399
 9040SOL    HW227364   5.762   1.409   2.465
 9041SOL     OW27365   5.854   1.093   2.752
 9041SOL    HW127366   5.852   1.004   2.788
 9041SOL    HW227367   5.796   1.143   2.809
 9042SOL     OW27368   6.181   1.797   3.283
 9042SOL    HW127369   6.103   1.776   3.335
 9042SOL    HW227370   6.208   1.884   3.314
 9043SOL     OW27371   6.162   0.985   2.004
 9043SOL    HW127372   6.210   1.030   1.934
 9043SOL    HW227373   6.202   1.017   2.085
 9044SOL     OW27374   5.706   0.658   2.423
 9044SOL    HW127375   5.678   0.569   2.445
 9044SOL    HW227376   5.697   0.706   2.506
 9045SOL     OW27377   5.626   1.589   1.982
 9045SOL    HW127378   5.608   1.497   2.001
 9045SOL    HW227379   5.600   1.636   2.061
 9046SOL     OW27380   5.708   0.751   3.442
 9046SOL    HW127381   5.797   0.785   3.446
 9046SOL    HW227382   5.652   0.829   3.442
 9047SOL     OW27383   6.202   1.393   2.596
 9047SOL    HW127384   6.158   1.308   2.604
 9047SOL    HW227385   6.186   1.419   2.505
 9048SOL     OW27386   6.830   1.219   3.291
 9048SOL    HW127387   6.867   1.151   3.234
 9048SOL    HW227388   6.894   1.228   3.362
 9049SOL     OW27389   6.416   0.025   2.379
 9049SOL    HW127390   6.448   0.114   2.361
 9049SOL    HW227391   6.321   0.035   2.382
 9050SOL     OW27392   5.773   0.960   3.143
 9050SOL    HW127393   5.860   0.923   3.128
 9050SOL    HW227394   5.716   0.914   3.081
 9051SOL     OW27395   6.790   1.817   3.482
 9051SOL    HW127396   6.767   1.877   3.411
 9051SOL    HW227397   6.782   1.730   3.442
 9052SOL     OW27398   5.905   0.270   3.645
 9052SOL    HW127399   5.962   0.331   3.690
 9052SOL    HW227400   5.826   0.267   3.698
 9053SOL     OW27401   6.178   0.714   2.132
 9053SOL    HW127402   6.180   0.800   2.089
 9053SOL    HW227403   6.113   0.724   2.202
 9054SOL     OW27404   6.852   0.372   2.746
 9054SOL    HW127405   6.760   0.359   2.771
 9054SOL    HW227406   6.902   0.331   2.817
 9055SOL     OW27407   6.389   0.619   3.317
 9055SOL    HW127408   6.358   0.591   3.402
 9055SOL    HW227409   6.354   0.555   3.256
 9056SOL     OW27410   6.945   0.476   3.553
 9056SOL    HW127411   6.914   0.560   3.586
 9056SOL    HW227412   0.041   0.483   3.554
 9057SOL     OW27413   6.542   0.887   3.450
 9057SOL    HW127414   6.597   0.818   3.411
 9057SOL    HW227415   6.493   0.923   3.376
 9058SOL     OW27416   6.592   0.413   3.094
 9058SOL    HW127417   6.505   0.429   3.130
 9058SOL    HW227418   6.576   0.374   3.008
 9059SOL     OW27419   6.637   0.702   2.283
 9059SOL    HW127420   6.653   0.702   2.377
 9059SOL    HW227421   6.554   0.656   2.272
 9060SOL     OW27422   5.673   0.823   2.641
 9060SOL    HW127423   5.754   0.816   2.691
 9060SOL    HW227424   5.629   0.900   2.677
 9061SOL     OW27425   5.710   1.874   3.447
 9061SOL    HW127426   5.714   1.852   3.540
 9061SOL    HW227427   5.627   1.836   3.417
 9062SOL     OW27428   6.476   0.353   2.061
 9062SOL    HW127429   6.522   0.409   1.998
 9062SOL    HW227430   6.449   0.277   2.010
 9063SOL     OW27431   6.937   1.133   2.383
 9063SOL    HW127432   6.989   1.115   2.305
 9063SOL    HW227433   6.886   1.211   2.361
 9064SOL     OW27434   6.086   0.186   2.774
 9064SOL    HW127435   6.126   0.221   2.854
 9064SOL    HW227436   6.108   0.249   2.706
 9065SOL     OW27437   6.574   1.452   2.338
 9065SOL    HW127438   6.545   1.524   2.282
 9065SOL    HW227439   6.541   1.474   2.425
 9066SOL     OW27440   5.940   1.815   2.735
 9066SOL    HW127441   5.985   1.731   2.740
 9066SOL    HW227442   6.008   1.880   2.753
 9067SOL     OW27443   6.792   1.562   3.368
 9067SOL    HW127444   6.798   1.488   3.428
 9067SOL    HW227445   6.755   1.525   3.287
 9068SOL     OW27446   5.898   0.961   2.118
 9068SOL    HW127447   5.981   0.980   2.074
 9068SOL    HW227448   5.870   0.877   2.080
 9069SOL     OW27449   6.056   1.267   3.599
 9069SOL    HW127450   6.030   1.272   3.508
 9069SOL    HW227451   5.974   1.266   3.648
 9070SOL     OW27452   6.717   1.769   2.106
 9070SOL    HW127453   6.636   1.741   2.150
 9070SOL    HW227454   6.726   1.708   2.033
 9071SOL     OW27455   5.773   0.268   3.384
 9071SOL    HW127456   5.722   0.348   3.374
 9071SOL    HW227457   5.805   0.271   3.474
 9072SOL     OW27458   6.046   1.737   2.180
 9072SOL    HW127459   6.094   1.791   2.243
 9072SOL    HW227460   6.115   1.700   2.124
 9073SOL     OW27461   5.842   1.790   3.089
 9073SOL    HW127462   5.892   1.719   3.130
 9073SOL    HW227463   5.835   1.764   2.997
 9074SOL     OW27464   6.530   1.699   2.757
 9074SOL    HW127465   6.613   1.653   2.767
 9074SOL    HW227466   6.483   1.650   2.690
 9075SOL     OW27467   5.983   0.691   2.334
 9075SOL    HW127468   5.999   0.598   2.347
 9075SOL    HW227469   5.890   0.702   2.351
 9076SOL     OW27470   6.237   0.112   1.961
 9076SOL    HW127471   6.271   0.040   2.014
 9076SOL    HW227472   6.172   0.071   1.903
 9077SOL     OW27473   6.354   0.277   3.631
 9077SOL    HW127474   6.437   0.230   3.627
 9077SOL    HW227475   6.303   0.230   3.697
 9078SOL     OW27476   6.460   1.528   3.056
 9078SOL    HW127477   6.442   1.491   2.969
 9078SOL    HW227478   6.528   1.472   3.093
 9079SOL     OW27479   6.400   1.388   2.811
 9079SOL    HW127480   6.485   1.376   2.770
 9079SOL    HW227481   6.339   1.395   2.738
 9080SOL     OW27482   6.510   0.515   2.759
 9080SOL    HW127483   6.487   0.510   2.666
 9080SOL    HW227484   6.537   0.426   2.782
 9081SOL     OW27485   6.148   0.067   2.357
 9081SOL    HW127486   6.069   0.055   2.410
 9081SOL    HW227487   6.126   0.135   2.295
 9082SOL     OW27488   6.993   1.125   1.882
 9082SOL    HW127489   0.020   1.080   1.962
 9082SOL    HW227490   6.925   1.186   1.910
 9083SOL     OW27491   5.906   0.060   2.049
 9083SOL    HW127492   5.950   0.141   2.074
 9083SOL    HW227493   5.936   6.995   2.113
 9084SOL     OW27494   6.541   0.267   2.315
 9084SOL    HW127495   6.511   0.299   2.230
 9084SOL    HW227496   6.636   0.280   2.314
 9085SOL     OW27497   6.658   0.667   3.324
 9085SOL    HW127498   6.567   0.638   3.325
 9085SOL    HW227499   6.708   0.588   3.344
 9086SOL     OW27500   6.780   1.578   2.661
 9086SOL    HW127501   6.796   1.642   2.591
 9086SOL    HW227502   6.866   1.559   2.697
 9087SOL     OW27503   6.059   1.155   2.586
 9087SOL    HW127504   5.994   1.134   2.652
 9087SOL    HW227505   6.014   1.143   2.503
 9088SOL     OW27506   6.835   1.796   2.470
 9088SOL    HW127507   6.860   1.858   2.401
 9088SOL    HW227508   6.768   1.843   2.521
 9089SOL     OW27509   6.605   0.533   1.889
 9089SOL    HW127510   6.564   0.618   1.876
 9089SOL    HW227511   6.669   0.548   1.958
 9090SOL     OW27512   5.678   0.545   3.265
 9090SOL    HW127513   5.767   0.552   3.232
 9090SOL    HW227514   5.669   0.619   3.325
 9091SOL     OW27515   6.155   0.248   3.041
 9091SOL    HW127516   6.196   0.172   3.082
 9091SOL    HW227517   6.063   0.242   3.068
 9092SOL     OW27518   6.447   0.459   2.500
 9092SOL    HW127519   6.406   0.519   2.437
 9092SOL    HW227520   6.475   0.384   2.447
 9093SOL     OW27521   6.533   0.030   2.637
 9093SOL    HW127522   6.480   0.021   2.558
 9093SOL    HW227523   6.600   6.963   2.629
 9094SOL     OW27524   6.075   1.424   2.017
 9094SOL    HW127525   5.997   1.393   2.064
 9094SOL    HW227526   6.077   1.370   1.937
 9095SOL     OW27527   6.097   0.255   2.159
 9095SOL    HW127528   6.161   0.218   2.098
 9095SOL    HW227529   6.078   0.342   2.123
 9096SOL     OW27530   6.624   1.350   3.186
 9096SOL    HW127531   6.546   1.321   3.235
 9096SOL    HW227532   6.697   1.305   3.229
 9097SOL     OW27533   6.734   1.226   2.957
 9097SOL    HW127534   6.673   1.256   3.025
 9097SOL    HW227535   6.694   1.253   2.875
 9098SOL     OW27536   6.468   0.148   3.251
 9098SOL    HW127537   6.486   0.119   3.161
 9098SOL    HW227538   6.555   0.166   3.288
 9099SOL     OW27539   6.572   1.116   3.594
 9099SOL    HW127540   6.481   1.135   3.616
 9099SOL    HW227541   6.568   1.041   3.535
 9100SOL     OW27542   6.296   1.063   2.233
 9100SOL    HW127543   6.283   1.042   2.325
 9100SOL    HW227544   6.372   1.009   2.207
 9101SOL     OW27545   6.010   0.823   3.115
 9101SOL    HW127546   6.078   0.830   3.182
 9101SOL    HW227547   5.974   0.735   3.126
 9102SOL     OW27548   6.857   0.362   3.150
 9102SOL    HW127549   6.909   0.440   3.172
 9102SOL    HW227550   6.771   0.396   3.126
 9103SOL     OW27551   5.663   1.574   3.220
 9103SOL    HW127552   5.635   1.645   3.162
 9103SOL    HW227553   5.758   1.571   3.212
 9104SOL     OW27554   5.918   1.122   2.351
 9104SOL    HW127555   5.922   1.195   2.289
 9104SOL    HW227556   5.918   1.044   2.296
 9105SOL     OW27557   6.137   0.535   2.721
 9105SOL    HW127558   6.151   0.593   2.646
 9105SOL    HW227559   6.207   0.557   2.782
 9106SOL     OW27560   6.827   1.367   2.286
 9106SOL    HW127561   6.874   1.443   2.319
 9106SOL    HW227562   6.734   1.387   2.303
 9107SOL     OW27563   6.854   1.482   3.002
 9107SOL    HW127564   6.930   1.472   3.059
 9107SOL    HW227565   6.818   1.394   2.996
 9108SOL     OW27566   5.932   1.530   3.171
 9108SOL    HW127567   5.921   1.484   3.087
 9108SOL    HW227568   6.026   1.542   3.180
 9109SOL     OW27569   6.008   0.742   3.468
 9109SOL    HW127570   6.068   0.787   3.409
 9109SOL    HW227571   6.050   0.656   3.483
 9110SOL     OW27572   6.589   0.129   3.611
 9110SOL    HW127573   6.629   0.176   3.538
 9110SOL    HW227574   6.594   0.037   3.587
 9111SOL     OW27575   6.047   0.032   3.622
 9111SOL    HW127576   5.974   6.971   3.631
 9111SOL    HW227577   6.006   0.119   3.624
 9112SOL     OW27578   6.171   0.877   2.894
 9112SOL    HW127579   6.206   0.966   2.898
 9112SOL    HW227580   6.114   0.870   2.970
 9113SOL     OW27581   6.949   0.844   2.888
 9113SOL    HW127582   6.860   0.827   2.857
 9113SOL    HW227583   6.982   0.759   2.916
 9114SOL     OW27584   6.770   0.538   2.108
 9114SOL    HW127585   6.790   0.459   2.157
 9114SOL    HW227586   6.733   0.598   2.172
 9115SOL     OW27587   5.891   0.209   3.111
 9115SOL    HW127588   5.828   0.214   3.182
 9115SOL    HW227589   5.883   0.120   3.077
 9116SOL     OW27590   5.631   1.312   3.135
 9116SOL    HW127591   5.663   1.256   3.205
 9116SOL    HW227592   5.637   1.401   3.171
 9117SOL     OW27593   6.311   0.637   2.916
 9117SOL    HW127594   6.384   0.623   2.855
 9117SOL    HW227595   6.278   0.724   2.893
 9118SOL     OW27596   5.909   0.059   2.486
 9118SOL    HW127597   5.887   0.147   2.516
 9118SOL    HW227598   5.851   0.001   2.535
 9119SOL     OW27599   0.208   0.462   2.200
 9119SOL    HW127600   0.196   0.372   2.231
 9119SOL    HW227601   0.185   0.516   2.276
 9120SOL     OW27602   6.615   0.761   2.820
 9120SOL    HW127603   6.605   0.775   2.914
 9120SOL    HW227604   6.588   0.670   2.807
 9121SOL     OW27605   6.552   1.570   3.572
 9121SOL    HW127606   6.540   1.608   3.485
 9121SOL    HW227607   6.603   1.491   3.556
 9122SOL     OW27608   5.937   0.917   3.671
 9122SOL    HW127609   6.016   0.937   3.721
 9122SOL    HW227610   5.965   0.852   3.605
 9123SOL     OW27611   6.894   0.813   1.884
 9123SOL    HW127612   6.957   0.757   1.928
 9123SOL    HW227613   6.939   0.845   1.806
 9124SOL     OW27614   6.647   1.335   2.718
 9124SOL    HW127615   6.655   1.265   2.653
 9124SOL    HW227616   6.698   1.407   2.681
 9125SOL     OW27617   5.895   0.815   2.807
 9125SOL    HW127618   5.988   0.834   2.799
 9125SOL    HW227619   5.892   0.724   2.838
 9126SOL     OW27620   5.920   0.545   2.875
 9126SOL    HW127621   5.881   0.459   2.862
 9126SOL    HW227622   5.998   0.545   2.819
 9127SOL     OW27623   6.689   0.397   3.530
 9127SOL    HW127624   6.647   0.439   3.604
 9127SOL    HW227625   6.783   0.409   3.546
 9128SOL     OW27626   6.713   0.214   3.340
 9128SOL    HW127627   6.708   0.285   3.404
 9128SOL    HW227628   6.762   0.251   3.267
 9129SOL     OW27629   5.594   1.316   2.056
 9129SOL    HW127630   5.507   1.333   2.021
 9129SOL    HW227631   5.589   1.226   2.090
 9130SOL     OW27632   5.676   1.781   2.805
 9130SOL    HW127633   5.645   1.703   2.757
 9130SOL    HW227634   5.765   1.795   2.773
 9131SOL     OW27635   6.076   1.574   2.766
 9131SOL    HW127636   6.146   1.636   2.789
 9131SOL    HW227637   6.118   1.512   2.707
 9132SOL     OW27638   6.563   0.784   3.085
 9132SOL    HW127639   6.623   0.762   3.157
 9132SOL    HW227640   6.479   0.746   3.111
 9133SOL     OW27641   5.622   0.549   2.983
 9133SOL    HW127642   5.696   0.534   2.925
 9133SOL    HW227643   5.659   0.546   3.071
 9134SOL     OW27644   5.769   0.533   3.594
 9134SOL    HW127645   5.849   0.512   3.545
 9134SOL    HW227646   5.731   0.607   3.547
 9135SOL     OW27647   6.402   0.573   2.230
 9135SOL    HW127648   6.409   0.499   2.169
 9135SOL    HW227649   6.327   0.623   2.198
 9136SOL     OW27650   5.821   1.547   3.584
 9136SOL    HW127651   5.802   1.611   3.653
 9136SOL    HW227652   5.831   1.464   3.630
 9137SOL     OW27653   6.310   0.459   3.118
 9137SOL    HW127654   6.252   0.386   3.094
 9137SOL    HW227655   6.301   0.521   3.046
 9138SOL     OW27656   6.495   1.686   3.328
 9138SOL    HW127657   6.482   1.641   3.244
 9138SOL    HW227658   6.487   1.779   3.307
 9139SOL     OW27659   6.044   0.491   2.034
 9139SOL    HW127660   6.104   0.561   2.061
 9139SOL    HW227661   5.959   0.533   2.028
 9140SOL     OW27662   5.724   1.144   3.336
 9140SOL    HW127663   5.727   1.098   3.420
 9140SOL    HW227664   5.742   1.076   3.271
 9141SOL     OW27665   6.891   1.040   3.087
 9141SOL    HW127666   6.916   0.973   3.023
 9141SOL    HW227667   6.835   1.101   3.038
 9142SOL     OW27668   6.886   0.867   2.171
 9142SOL    HW127669   6.825   0.828   2.234
 9142SOL    HW227670   6.849   0.846   2.085
 9143SOL     OW27671   6.850   1.754   2.973
 9143SOL    HW127672   6.928   1.761   2.918
 9143SOL    HW227673   6.840   1.660   2.987
 9144SOL     OW27674   5.673   1.266   2.871
 9144SOL    HW127675   5.654   1.280   2.964
 9144SOL    HW227676   5.603   1.208   2.841
 9145SOL     OW27677   6.266   1.673   3.607
 9145SOL    HW127678   6.211   1.748   3.590
 9145SOL    HW227679   6.342   1.685   3.550
 9146SOL     OW27680   6.977   1.586   2.359
 9146SOL    HW127681   0.057   1.627   2.327
 9146SOL    HW227682   6.921   1.659   2.385
 9147SOL     OW27683   5.726   1.797   3.705
 9147SOL    HW127684   5.677   1.729   3.751
 9147SOL    HW227685   5.773   1.843   3.774
 9148SOL     OW27686   6.866   0.920   2.526
 9148SOL    HW127687   6.950   0.880   2.550
 9148SOL    HW227688   6.889   0.996   2.474
 9149SOL     OW27689   6.379   1.274   3.283
 9149SOL    HW127690   6.352   1.319   3.363
 9149SOL    HW227691   6.308   1.292   3.221
 9150SOL     OW27692   6.252   1.630   2.020
 9150SOL    HW127693   6.266   1.643   1.926
 9150SOL    HW227694   6.199   1.550   2.025
 9151SOL     OW27695   5.846   0.311   2.575
 9151SOL    HW127696   5.760   0.347   2.552
 9151SOL    HW227697   5.848   0.314   2.671
 9152SOL     OW27698   6.750   1.597   1.902
 9152SOL    HW127699   6.770   1.506   1.881
 9152SOL    HW227700   6.689   1.625   1.834
 9153SOL     OW27701   6.412   1.006   3.239
 9153SOL    HW127702   6.452   1.002   3.153
 9153SOL    HW227703   6.403   1.099   3.257
 9154SOL     OW27704   6.502   0.911   2.149
 9154SOL    HW127705   6.566   0.943   2.085
 9154SOL    HW227706   6.550   0.844   2.198
 9155SOL     OW27707   5.951   1.305   3.355
 9155SOL    HW127708   5.940   1.381   3.298
 9155SOL    HW227709   5.873   1.252   3.339
 9156SOL     OW27710   6.646   1.109   2.570
 9156SOL    HW127711   6.574   1.059   2.608
 9156SOL    HW227712   6.711   1.042   2.544
 9157SOL     OW27713   6.599   0.253   2.808
 9157SOL    HW127714   6.566   0.202   2.734
 9157SOL    HW227715   6.592   0.194   2.883
 9158SOL     OW27716   6.193   1.488   2.340
 9158SOL    HW127717   6.244   1.438   2.277
 9158SOL    HW227718   6.116   1.517   2.291
 9159SOL     OW27719   5.849   1.340   2.156
 9159SOL    HW127720   5.757   1.336   2.130
 9159SOL    HW227721   5.848   1.382   2.242
 9160SOL     OW27722   5.701   1.037   3.589
 9160SOL    HW127723   5.625   1.008   3.639
 9160SOL    HW227724   5.775   0.992   3.630
 9161SOL     OW27725   6.249   0.242   3.376
 9161SOL    HW127726   6.326   0.218   3.324
 9161SOL    HW227727   6.286   0.272   3.459
 9162SOL     OW27728   5.661   0.332   1.898
 9162SOL    HW127729   5.569   0.316   1.875
 9162SOL    HW227730   5.685   0.409   1.846
 9163SOL     OW27731   5.654   0.176   2.170
 9163SOL    HW127732   5.663   0.240   2.100
 9163SOL    HW227733   5.702   0.099   2.139
 9164SOL     OW27734   6.210   0.828   3.298
 9164SOL    HW127735   6.266   0.905   3.284
 9164SOL    HW227736   6.271   0.755   3.307
 9165SOL     OW27737   6.306   0.556   3.564
 9165SOL    HW127738   6.348   0.618   3.623
 9165SOL    HW227739   6.322   0.470   3.604
 9166SOL     OW27740   6.990   1.261   3.508
 9166SOL    HW127741   6.999   1.203   3.583
 9166SOL    HW227742   0.070   1.250   3.458
 9167SOL     OW27743   5.955   1.742   3.429
 9167SOL    HW127744   5.872   1.788   3.414
 9167SOL    HW227745   5.929   1.658   3.469
 9168SOL     OW27746   6.822   0.312   2.299
 9168SOL    HW127747   6.893   0.267   2.254
 9168SOL    HW227748   6.864   0.357   2.372
 9169SOL     OW27749   6.173   0.734   2.534
 9169SOL    HW127750   6.213   0.820   2.519
 9169SOL    HW227751   6.108   0.725   2.464
 9170SOL     OW27752   6.422   1.370   1.894
 9170SOL    HW127753   6.411   1.392   1.987
 9170SOL    HW227754   6.456   1.450   1.854
 9171SOL     OW27755   6.250   1.781   2.797
 9171SOL    HW127756   6.232   1.874   2.781
 9171SOL    HW227757   6.346   1.776   2.797
 9172SOL     OW27758   6.454   0.972   2.716
 9172SOL    HW127759   6.506   0.900   2.751
 9172SOL    HW227760   6.415   1.013   2.792
 9173SOL     OW27761   6.675   0.981   1.951
 9173SOL    HW127762   6.645   1.037   1.880
 9173SOL    HW227763   6.744   0.927   1.912
 9174SOL     OW27764   5.811   1.297   3.714
 9174SOL    HW127765   5.753   1.230   3.680
 9174SOL    HW227766   5.785   1.309   3.805
 9175SOL     OW27767   5.678   1.228   2.527
 9175SOL    HW127768   5.693   1.184   2.610
 9175SOL    HW227769   5.744   1.191   2.468
 9176SOL     OW27770   6.263   1.413   3.486
 9176SOL    HW127771   6.190   1.367   3.528
 9176SOL    HW227772   6.268   1.497   3.531
 9177SOL     OW27773   6.013   0.429   2.383
 9177SOL    HW127774   6.043   0.356   2.328
 9177SOL    HW227775   5.964   0.387   2.453
 9178SOL     OW27776   5.921   0.565   3.153
 9178SOL    HW127777   5.974   0.506   3.207
 9178SOL    HW227778   5.940   0.539   3.063
 9179SOL     OW27779   6.414   1.582   2.538
 9179SOL    HW127780   6.388   1.647   2.474
 9179SOL    HW227781   6.340   1.521   2.542
 9180SOL     OW27782   6.969   0.216   2.942
 9180SOL    HW127783   6.994   0.134   2.985
 9180SOL    HW227784   6.931   0.269   3.012
 9181SOL     OW27785   6.555   0.062   2.994
 9181SOL    HW127786   6.505   0.001   2.941
 9181SOL    HW227787   6.602   0.007   3.056
 9182SOL     OW27788   6.362   1.334   2.183
 9182SOL    HW127789   6.335   1.242   2.190
 9182SOL    HW227790   6.444   1.339   2.232
 9183SOL     OW27791   6.205   1.558   3.148
 9183SOL    HW127792   6.204   1.641   3.197
 9183SOL    HW227793   6.294   1.552   3.113
 9184SOL     OW27794   5.628   1.064   2.172
 9184SOL    HW127795   5.721   1.056   2.152
 9184SOL    HW227796   5.600   0.975   2.193
 9185SOL     OW27797   6.470   1.667   2.201
 9185SOL    HW127798   6.396   1.649   2.143
 9185SOL    HW227799   6.440   1.737   2.258
 9186SOL     OW27800   5.805   0.624   3.856
 9186SOL    HW127801   5.718   0.617   3.896
 9186SOL    HW227802   5.790   0.603   3.764
 9187SOL     OW27803   5.810   0.306   4.718
 9187SOL    HW127804   5.847   0.263   4.795
 9187SOL    HW227805   5.732   0.254   4.696
 9188SOL     OW27806   5.595   0.398   4.354
 9188SOL    HW127807   5.510   0.412   4.396
 9188SOL    HW227808   5.577   0.331   4.288
 9189SOL     OW27809   6.155   1.300   4.912
 9189SOL    HW127810   6.070   1.305   4.869
 9189SOL    HW227811   6.172   1.389   4.942
 9190SOL     OW27812   0.064   1.543   4.486
 9190SOL    HW127813   0.098   1.453   4.485
 9190SOL    HW227814   0.037   1.559   4.395
 9191SOL     OW27815   6.689   0.718   4.409
 9191SOL    HW127816   6.754   0.789   4.402
 9191SOL    HW227817   6.659   0.722   4.500
 9192SOL     OW27818   6.328   1.136   4.774
 9192SOL    HW127819   6.263   1.175   4.833
 9192SOL    HW227820   6.369   1.210   4.730
 9193SOL     OW27821   6.460   0.762   5.550
 9193SOL    HW127822   6.444   0.830   5.616
 9193SOL    HW227823   6.483   0.810   5.471
 9194SOL     OW27824   6.271   0.996   4.367
 9194SOL    HW127825   6.338   0.989   4.435
 9194SOL    HW227826   6.204   1.052   4.405
 9195SOL     OW27827   6.295   1.145   5.540
 9195SOL    HW127828   6.340   1.224   5.571
 9195SOL    HW227829   6.215   1.177   5.500
 9196SOL     OW27830   5.918   1.415   4.791
 9196SOL    HW127831   5.843   1.375   4.746
 9196SOL    HW227832   5.962   1.467   4.724
 9197SOL     OW27833   6.028   0.400   5.205
 9197SOL    HW127834   6.110   0.352   5.214
 9197SOL    HW227835   5.960   0.332   5.212
 9198SOL     OW27836   5.805   1.717   4.192
 9198SOL    HW127837   5.827   1.791   4.248
 9198SOL    HW227838   5.880   1.709   4.133
 9199SOL     OW27839   6.725   1.350   5.429
 9199SOL    HW127840   6.810   1.312   5.408
 9199SOL    HW227841   6.667   1.275   5.438
 9200SOL     OW27842   5.819   1.446   4.260
 9200SOL    HW127843   5.799   1.539   4.262
 9200SOL    HW227844   5.762   1.408   4.326
 9201SOL     OW27845   5.854   1.092   4.614
 9201SOL    HW127846   5.851   1.004   4.650
 9201SOL    HW227847   5.796   1.143   4.671
 9202SOL     OW27848   6.181   1.797   5.145
 9202SOL    HW127849   6.103   1.776   5.197
 9202SOL    HW227850   6.208   1.883   5.177
 9203SOL     OW27851   6.161   0.985   3.866
 9203SOL    HW127852   6.210   1.029   3.796
 9203SOL    HW227853   6.201   1.017   3.947
 9204SOL     OW27854   5.706   0.658   4.285
 9204SOL    HW127855   5.678   0.569   4.307
 9204SOL    HW227856   5.697   0.707   4.367
 9205SOL     OW27857   5.626   1.589   3.843
 9205SOL    HW127858   5.608   1.497   3.863
 9205SOL    HW227859   5.600   1.636   3.922
 9206SOL     OW27860   5.708   0.751   5.304
 9206SOL    HW127861   5.797   0.786   5.308
 9206SOL    HW227862   5.651   0.828   5.304
 9207SOL     OW27863   6.202   1.393   4.458
 9207SOL    HW127864   6.159   1.308   4.466
 9207SOL    HW227865   6.187   1.419   4.367
 9208SOL     OW27866   6.831   1.219   5.152
 9208SOL    HW127867   6.867   1.151   5.096
 9208SOL    HW227868   6.894   1.228   5.224
 9209SOL     OW27869   6.416   0.025   4.241
 9209SOL    HW127870   6.448   0.114   4.223
 9209SOL    HW227871   6.321   0.035   4.244
 9210SOL     OW27872   5.773   0.960   5.005
 9210SOL    HW127873   5.860   0.923   4.990
 9210SOL    HW227874   5.716   0.914   4.944
 9211SOL     OW27875   6.793   1.817   5.342
 9211SOL    HW127876   6.768   1.877   5.273
 9211SOL    HW227877   6.784   1.730   5.303
 9212SOL     OW27878   5.906   0.270   5.508
 9212SOL    HW127879   5.962   0.332   5.553
 9212SOL    HW227880   5.826   0.267   5.560
 9213SOL     OW27881   6.178   0.714   3.994
 9213SOL    HW127882   6.181   0.800   3.952
 9213SOL    HW227883   6.113   0.724   4.064
 9214SOL     OW27884   6.852   0.372   4.608
 9214SOL    HW127885   6.760   0.359   4.633
 9214SOL    HW227886   6.902   0.332   4.678
 9215SOL     OW27887   6.389   0.619   5.178
 9215SOL    HW127888   6.358   0.591   5.264
 9215SOL    HW227889   6.354   0.555   5.117
 9216SOL     OW27890   6.945   0.476   5.415
 9216SOL    HW127891   6.914   0.560   5.448
 9216SOL    HW227892   0.041   0.483   5.416
 9217SOL     OW27893   6.542   0.887   5.312
 9217SOL    HW127894   6.597   0.818   5.273
 9217SOL    HW227895   6.493   0.924   5.238
 9218SOL     OW27896   6.592   0.412   4.956
 9218SOL    HW127897   6.505   0.429   4.992
 9218SOL    HW227898   6.576   0.374   4.870
 9219SOL     OW27899   6.637   0.702   4.145
 9219SOL    HW127900   6.653   0.703   4.239
 9219SOL    HW227901   6.554   0.656   4.134
 9220SOL     OW27902   5.673   0.824   4.502
 9220SOL    HW127903   5.754   0.817   4.553
 9220SOL    HW227904   5.629   0.900   4.539
 9221SOL     OW27905   5.710   1.874   5.309
 9221SOL    HW127906   5.715   1.851   5.401
 9221SOL    HW227907   5.625   1.839   5.280
 9222SOL     OW27908   6.476   0.353   3.923
 9222SOL    HW127909   6.522   0.409   3.860
 9222SOL    HW227910   6.449   0.277   3.872
 9223SOL     OW27911   6.937   1.133   4.245
 9223SOL    HW127912   6.989   1.116   4.167
 9223SOL    HW227913   6.885   1.211   4.223
 9224SOL     OW27914   6.087   0.186   4.636
 9224SOL    HW127915   6.126   0.221   4.716
 9224SOL    HW227916   6.108   0.251   4.569
 9225SOL     OW27917   6.574   1.452   4.200
 9225SOL    HW127918   6.545   1.525   4.144
 9225SOL    HW227919   6.541   1.474   4.287
 9226SOL     OW27920   5.940   1.815   4.596
 9226SOL    HW127921   5.984   1.731   4.602
 9226SOL    HW227922   6.008   1.879   4.615
 9227SOL     OW27923   6.793   1.562   5.229
 9227SOL    HW127924   6.798   1.488   5.290
 9227SOL    HW227925   6.754   1.525   5.150
 9228SOL     OW27926   5.897   0.961   3.980
 9228SOL    HW127927   5.981   0.980   3.936
 9228SOL    HW227928   5.870   0.876   3.944
 9229SOL     OW27929   6.056   1.266   5.461
 9229SOL    HW127930   6.029   1.272   5.369
 9229SOL    HW227931   5.974   1.265   5.510
 9230SOL     OW27932   6.719   1.771   3.967
 9230SOL    HW127933   6.638   1.744   4.012
 9230SOL    HW227934   6.728   1.710   3.894
 9231SOL     OW27935   5.773   0.269   5.246
 9231SOL    HW127936   5.722   0.349   5.235
 9231SOL    HW227937   5.804   0.272   5.336
 9232SOL     OW27938   6.046   1.737   4.042
 9232SOL    HW127939   6.093   1.791   4.105
 9232SOL    HW227940   6.115   1.700   3.986
 9233SOL     OW27941   5.842   1.790   4.951
 9233SOL    HW127942   5.892   1.719   4.993
 9233SOL    HW227943   5.835   1.763   4.859
 9234SOL     OW27944   6.530   1.699   4.619
 9234SOL    HW127945   6.613   1.653   4.630
 9234SOL    HW227946   6.483   1.650   4.552
 9235SOL     OW27947   5.983   0.691   4.196
 9235SOL    HW127948   5.999   0.598   4.209
 9235SOL    HW227949   5.890   0.702   4.214
 9236SOL     OW27950   6.237   0.112   3.822
 9236SOL    HW127951   6.271   0.040   3.876
 9236SOL    HW227952   6.172   0.071   3.765
 9237SOL     OW27953   6.354   0.277   5.493
 9237SOL    HW127954   6.437   0.230   5.489
 9237SOL    HW227955   6.302   0.230   5.559
 9238SOL     OW27956   6.460   1.529   4.917
 9238SOL    HW127957   6.442   1.491   4.831
 9238SOL    HW227958   6.528   1.472   4.955
 9239SOL     OW27959   6.400   1.388   4.673
 9239SOL    HW127960   6.486   1.376   4.632
 9239SOL    HW227961   6.339   1.395   4.600
 9240SOL     OW27962   6.511   0.515   4.621
 9240SOL    HW127963   6.487   0.510   4.528
 9240SOL    HW227964   6.537   0.426   4.644
 9241SOL     OW27965   6.148   0.067   4.219
 9241SOL    HW127966   6.070   0.055   4.272
 9241SOL    HW227967   6.125   0.135   4.157
 9242SOL     OW27968   6.993   1.125   3.744
 9242SOL    HW127969   0.020   1.080   3.824
 9242SOL    HW227970   6.925   1.186   3.772
 9243SOL     OW27971   5.906   0.060   3.911
 9243SOL    HW127972   5.951   0.140   3.937
 9243SOL    HW227973   5.935   6.994   3.974
 9244SOL     OW27974   6.541   0.267   4.177
 9244SOL    HW127975   6.511   0.299   4.092
 9244SOL    HW227976   6.636   0.280   4.176
 9245SOL     OW27977   6.658   0.667   5.186
 9245SOL    HW127978   6.566   0.639   5.187
 9245SOL    HW227979   6.708   0.588   5.206
 9246SOL     OW27980   6.780   1.578   4.523
 9246SOL    HW127981   6.797   1.641   4.454
 9246SOL    HW227982   6.866   1.560   4.561
 9247SOL     OW27983   6.060   1.156   4.448
 9247SOL    HW127984   5.994   1.134   4.515
 9247SOL    HW227985   6.014   1.143   4.365
 9248SOL     OW27986   6.835   1.796   4.332
 9248SOL    HW127987   6.860   1.858   4.264
 9248SOL    HW227988   6.768   1.842   4.384
 9249SOL     OW27989   6.605   0.533   3.751
 9249SOL    HW127990   6.564   0.618   3.738
 9249SOL    HW227991   6.669   0.548   3.821
 9250SOL     OW27992   5.677   0.546   5.126
 9250SOL    HW127993   5.767   0.553   5.093
 9250SOL    HW227994   5.668   0.619   5.187
 9251SOL     OW27995   6.154   0.247   4.903
 9251SOL    HW127996   6.196   0.171   4.944
 9251SOL    HW227997   6.063   0.242   4.929
 9252SOL     OW27998   6.447   0.459   4.362
 9252SOL    HW127999   6.406   0.519   4.299
 9252SOL    HW228000   6.475   0.384   4.309
 9253SOL     OW28001   6.533   0.030   4.499
 9253SOL    HW128002   6.480   0.021   4.420
 9253SOL    HW228003   6.600   6.962   4.491
 9254SOL     OW28004   6.075   1.424   3.879
 9254SOL    HW128005   5.997   1.394   3.926
 9254SOL    HW228006   6.078   1.370   3.800
 9255SOL     OW28007   6.097   0.255   4.020
 9255SOL    HW128008   6.161   0.218   3.960
 9255SOL    HW228009   6.078   0.342   3.985
 9256SOL     OW28010   6.624   1.350   5.048
 9256SOL    HW128011   6.546   1.321   5.097
 9256SOL    HW228012   6.697   1.305   5.091
 9257SOL     OW28013   6.734   1.226   4.820
 9257SOL    HW128014   6.673   1.256   4.887
 9257SOL    HW228015   6.694   1.253   4.737
 9258SOL     OW28016   6.469   0.148   5.113
 9258SOL    HW128017   6.486   0.119   5.024
 9258SOL    HW228018   6.555   0.166   5.150
 9259SOL     OW28019   6.572   1.116   5.456
 9259SOL    HW128020   6.481   1.135   5.478
 9259SOL    HW228021   6.567   1.040   5.398
 9260SOL     OW28022   6.296   1.063   4.095
 9260SOL    HW128023   6.283   1.042   4.187
 9260SOL    HW228024   6.372   1.009   4.069
 9261SOL     OW28025   6.010   0.823   4.977
 9261SOL    HW128026   6.078   0.830   5.043
 9261SOL    HW228027   5.974   0.734   4.988
 9262SOL     OW28028   6.857   0.362   5.012
 9262SOL    HW128029   6.909   0.440   5.034
 9262SOL    HW228030   6.771   0.396   4.988
 9263SOL     OW28031   5.662   1.574   5.082
 9263SOL    HW128032   5.635   1.646   5.026
 9263SOL    HW228033   5.758   1.571   5.074
 9264SOL     OW28034   5.918   1.122   4.213
 9264SOL    HW128035   5.922   1.195   4.151
 9264SOL    HW228036   5.917   1.043   4.158
 9265SOL     OW28037   6.137   0.534   4.583
 9265SOL    HW128038   6.151   0.593   4.508
 9265SOL    HW228039   6.207   0.557   4.644
 9266SOL     OW28040   6.826   1.367   4.148
 9266SOL    HW128041   6.873   1.444   4.181
 9266SOL    HW228042   6.734   1.386   4.165
 9267SOL     OW28043   6.854   1.482   4.863
 9267SOL    HW128044   6.930   1.474   4.921
 9267SOL    HW228045   6.818   1.393   4.859
 9268SOL     OW28046   5.931   1.531   5.033
 9268SOL    HW128047   5.921   1.484   4.950
 9268SOL    HW228048   6.026   1.542   5.042
 9269SOL     OW28049   6.009   0.741   5.331
 9269SOL    HW128050   6.068   0.788   5.271
 9269SOL    HW228051   6.050   0.656   5.345
 9270SOL     OW28052   6.589   0.129   5.473
 9270SOL    HW128053   6.628   0.176   5.400
 9270SOL    HW228054   6.594   0.037   5.448
 9271SOL     OW28055   6.047   0.032   5.484
 9271SOL    HW128056   5.974   6.971   5.494
 9271SOL    HW228057   6.006   0.119   5.486
 9272SOL     OW28058   6.171   0.877   4.755
 9272SOL    HW128059   6.206   0.966   4.760
 9272SOL    HW228060   6.114   0.870   4.832
 9273SOL     OW28061   6.949   0.844   4.749
 9273SOL    HW128062   6.860   0.826   4.719
 9273SOL    HW228063   6.982   0.758   4.778
 9274SOL     OW28064   6.770   0.538   3.970
 9274SOL    HW128065   6.791   0.459   4.020
 9274SOL    HW228066   6.733   0.598   4.034
 9275SOL     OW28067   5.891   0.209   4.973
 9275SOL    HW128068   5.828   0.214   5.045
 9275SOL    HW228069   5.883   0.120   4.940
 9276SOL     OW28070   5.633   1.312   4.996
 9276SOL    HW128071   5.664   1.256   5.067
 9276SOL    HW228072   5.638   1.401   5.033
 9277SOL     OW28073   6.310   0.636   4.777
 9277SOL    HW128074   6.384   0.623   4.717
 9277SOL    HW228075   6.278   0.724   4.755
 9278SOL     OW28076   5.909   0.059   4.347
 9278SOL    HW128077   5.887   0.147   4.378
 9278SOL    HW228078   5.851   0.001   4.398
 9279SOL     OW28079   0.208   0.462   4.062
 9279SOL    HW128080   0.196   0.372   4.092
 9279SOL    HW228081   0.185   0.516   4.138
 9280SOL     OW28082   6.615   0.761   4.682
 9280SOL    HW128083   6.605   0.775   4.776
 9280SOL    HW228084   6.588   0.670   4.669
 9281SOL     OW28085   6.553   1.571   5.433
 9281SOL    HW128086   6.540   1.609   5.346
 9281SOL    HW228087   6.603   1.491   5.418
 9282SOL     OW28088   5.937   0.916   5.533
 9282SOL    HW128089   6.016   0.937   5.583
 9282SOL    HW228090   5.966   0.852   5.468
 9283SOL     OW28091   6.894   0.813   3.746
 9283SOL    HW128092   6.958   0.757   3.790
 9283SOL    HW228093   6.940   0.844   3.668
 9284SOL     OW28094   6.647   1.335   4.580
 9284SOL    HW128095   6.655   1.265   4.515
 9284SOL    HW228096   6.698   1.407   4.543
 9285SOL     OW28097   5.895   0.814   4.668
 9285SOL    HW128098   5.988   0.834   4.662
 9285SOL    HW228099   5.892   0.724   4.700
 9286SOL     OW28100   5.920   0.545   4.737
 9286SOL    HW128101   5.881   0.459   4.724
 9286SOL    HW228102   5.998   0.544   4.681
 9287SOL     OW28103   6.690   0.396   5.392
 9287SOL    HW128104   6.647   0.438   5.466
 9287SOL    HW228105   6.783   0.409   5.408
 9288SOL     OW28106   6.714   0.214   5.202
 9288SOL    HW128107   6.708   0.285   5.266
 9288SOL    HW228108   6.762   0.251   5.129
 9289SOL     OW28109   5.594   1.316   3.918
 9289SOL    HW128110   5.506   1.333   3.882
 9289SOL    HW228111   5.589   1.227   3.952
 9290SOL     OW28112   5.675   1.780   4.666
 9290SOL    HW128113   5.645   1.703   4.618
 9290SOL    HW228114   5.765   1.795   4.634
 9291SOL     OW28115   6.076   1.574   4.627
 9291SOL    HW128116   6.145   1.636   4.651
 9291SOL    HW228117   6.119   1.511   4.569
 9292SOL     OW28118   6.563   0.784   4.947
 9292SOL    HW128119   6.623   0.762   5.019
 9292SOL    HW228120   6.479   0.747   4.973
 9293SOL     OW28121   5.622   0.549   4.845
 9293SOL    HW128122   5.697   0.534   4.788
 9293SOL    HW228123   5.658   0.546   4.934
 9294SOL     OW28124   5.769   0.533   5.455
 9294SOL    HW128125   5.849   0.513   5.407
 9294SOL    HW228126   5.730   0.607   5.409
 9295SOL     OW28127   6.402   0.573   4.091
 9295SOL    HW128128   6.409   0.499   4.031
 9295SOL    HW228129   6.327   0.623   4.059
 9296SOL     OW28130   5.822   1.548   5.446
 9296SOL    HW128131   5.801   1.612   5.514
 9296SOL    HW228132   5.831   1.465   5.493
 9297SOL     OW28133   6.310   0.458   4.980
 9297SOL    HW128134   6.252   0.386   4.956
 9297SOL    HW228135   6.301   0.521   4.907
 9298SOL     OW28136   6.496   1.685   5.189
 9298SOL    HW128137   6.482   1.641   5.106
 9298SOL    HW228138   6.488   1.778   5.169
 9299SOL     OW28139   6.044   0.491   3.896
 9299SOL    HW128140   6.104   0.561   3.923
 9299SOL    HW228141   5.959   0.534   3.890
 9300SOL     OW28142   5.724   1.144   5.198
 9300SOL    HW128143   5.727   1.098   5.282
 9300SOL    HW228144   5.742   1.076   5.133
 9301SOL     OW28145   6.892   1.040   4.949
 9301SOL    HW128146   6.916   0.973   4.885
 9301SOL    HW228147   6.835   1.100   4.900
 9302SOL     OW28148   6.886   0.867   4.033
 9302SOL    HW128149   6.825   0.828   4.096
 9302SOL    HW228150   6.849   0.846   3.948
 9303SOL     OW28151   6.850   1.754   4.834
 9303SOL    HW128152   6.928   1.761   4.779
 9303SOL    HW228153   6.839   1.660   4.849
 9304SOL     OW28154   5.675   1.265   4.733
 9304SOL    HW128155   5.656   1.280   4.826
 9304SOL    HW228156   5.603   1.209   4.703
 9305SOL     OW28157   6.266   1.672   5.469
 9305SOL    HW128158   6.210   1.748   5.453
 9305SOL    HW228159   6.341   1.686   5.412
 9306SOL     OW28160   6.977   1.586   4.220
 9306SOL    HW128161   0.057   1.627   4.189
 9306SOL    HW228162   6.921   1.659   4.247
 9307SOL     OW28163   5.727   1.796   5.566
 9307SOL    HW128164   5.677   1.729   5.613
 9307SOL    HW228165   5.774   1.843   5.636
 9308SOL     OW28166   6.866   0.920   4.388
 9308SOL    HW128167   6.950   0.881   4.412
 9308SOL    HW228168   6.889   0.996   4.336
 9309SOL     OW28169   6.379   1.274   5.145
 9309SOL    HW128170   6.352   1.319   5.225
 9309SOL    HW228171   6.308   1.292   5.083
 9310SOL     OW28172   6.252   1.630   3.882
 9310SOL    HW128173   6.266   1.643   3.788
 9310SOL    HW228174   6.200   1.550   3.887
 9311SOL     OW28175   5.846   0.312   4.437
 9311SOL    HW128176   5.760   0.347   4.415
 9311SOL    HW228177   5.849   0.314   4.533
 9312SOL     OW28178   6.749   1.598   3.765
 9312SOL    HW128179   6.771   1.507   3.743
 9312SOL    HW228180   6.688   1.625   3.696
 9313SOL     OW28181   6.412   1.006   5.101
 9313SOL    HW128182   6.452   1.002   5.015
 9313SOL    HW228183   6.403   1.100   5.120
 9314SOL     OW28184   6.502   0.911   4.010
 9314SOL    HW128185   6.566   0.943   3.947
 9314SOL    HW228186   6.549   0.844   4.060
 9315SOL     OW28187   5.951   1.305   5.216
 9315SOL    HW128188   5.940   1.381   5.160
 9315SOL    HW228189   5.873   1.251   5.201
 9316SOL     OW28190   6.646   1.108   4.431
 9316SOL    HW128191   6.574   1.059   4.470
 9316SOL    HW228192   6.711   1.042   4.407
 9317SOL     OW28193   6.599   0.253   4.670
 9317SOL    HW128194   6.566   0.202   4.596
 9317SOL    HW228195   6.592   0.194   4.745
 9318SOL     OW28196   6.193   1.488   4.202
 9318SOL    HW128197   6.244   1.438   4.139
 9318SOL    HW228198   6.116   1.517   4.153
 9319SOL     OW28199   5.848   1.341   4.017
 9319SOL    HW128200   5.756   1.337   3.992
 9319SOL    HW228201   5.848   1.382   4.103
 9320SOL     OW28202   5.701   1.036   5.450
 9320SOL    HW128203   5.625   1.008   5.501
 9320SOL    HW228204   5.775   0.991   5.492
 9321SOL     OW28205   6.250   0.242   5.238
 9321SOL    HW128206   6.326   0.217   5.186
 9321SOL    HW228207   6.286   0.272   5.321
 9322SOL     OW28208   5.661   0.332   3.760
 9322SOL    HW128209   5.569   0.316   3.738
 9322SOL    HW228210   5.685   0.409   3.708
 9323SOL     OW28211   5.654   0.175   4.033
 9323SOL    HW128212   5.664   0.240   3.963
 9323SOL    HW228213   5.701   0.098   4.001
 9324SOL     OW28214   6.210   0.828   5.160
 9324SOL    HW128215   6.266   0.905   5.146
 9324SOL    HW228216   6.271   0.755   5.169
 9325SOL     OW28217   6.306   0.556   5.426
 9325SOL    HW128218   6.348   0.618   5.485
 9325SOL    HW228219   6.322   0.470   5.466
 9326SOL     OW28220   6.989   1.261   5.370
 9326SOL    HW128221   6.999   1.203   5.445
 9326SOL    HW228222   0.070   1.249   5.320
 9327SOL     OW28223   5.955   1.741   5.291
 9327SOL    HW128224   5.872   1.787   5.276
 9327SOL    HW228225   5.929   1.658   5.331
 9328SOL     OW28226   6.822   0.312   4.161
 9328SOL    HW128227   6.893   0.267   4.116
 9328SOL    HW228228   6.864   0.358   4.234
 9329SOL     OW28229   6.173   0.734   4.396
 9329SOL    HW128230   6.213   0.820   4.381
 9329SOL    HW228231   6.108   0.725   4.326
 9330SOL     OW28232   6.421   1.370   3.756
 9330SOL    HW128233   6.411   1.391   3.849
 9330SOL    HW228234   6.456   1.450   3.717
 9331SOL     OW28235   6.250   1.781   4.658
 9331SOL    HW128236   6.231   1.874   4.643
 9331SOL    HW228237   6.345   1.776   4.659
 9332SOL     OW28238   6.455   0.972   4.577
 9332SOL    HW128239   6.506   0.900   4.613
 9332SOL    HW228240   6.415   1.014   4.654
 9333SOL     OW28241   6.675   0.981   3.813
 9333SOL    HW128242   6.646   1.037   3.741
 9333SOL    HW228243   6.744   0.926   3.774
 9334SOL     OW28244   5.812   1.298   5.576
 9334SOL    HW128245   5.752   1.231   5.543
 9334SOL    HW228246   5.786   1.311   5.667
 9335SOL     OW28247   5.678   1.228   4.389
 9335SOL    HW128248   5.692   1.184   4.473
 9335SOL    HW228249   5.745   1.189   4.331
 9336SOL     OW28250   6.264   1.413   5.348
 9336SOL    HW128251   6.190   1.367   5.389
 9336SOL    HW228252   6.267   1.497   5.393
 9337SOL     OW28253   6.013   0.429   4.244
 9337SOL    HW128254   6.043   0.356   4.190
 9337SOL    HW228255   5.964   0.387   4.315
 9338SOL     OW28256   5.921   0.565   5.015
 9338SOL    HW128257   5.973   0.506   5.069
 9338SOL    HW228258   5.940   0.539   4.925
 9339SOL     OW28259   6.414   1.581   4.400
 9339SOL    HW128260   6.387   1.647   4.336
 9339SOL    HW228261   6.340   1.521   4.405
 9340SOL     OW28262   6.969   0.216   4.804
 9340SOL    HW128263   6.994   0.134   4.848
 9340SOL    HW228264   6.931   0.270   4.874
 9341SOL     OW28265   6.555   0.062   4.856
 9341SOL    HW128266   6.504   0.001   4.803
 9341SOL    HW228267   6.603   0.007   4.918
 9342SOL     OW28268   6.362   1.334   4.045
 9342SOL    HW128269   6.336   1.242   4.052
 9342SOL    HW228270   6.444   1.340   4.094
 9343SOL     OW28271   6.205   1.558   5.010
 9343SOL    HW128272   6.204   1.640   5.059
 9343SOL    HW228273   6.294   1.552   4.975
 9344SOL     OW28274   5.628   1.064   4.033
 9344SOL    HW128275   5.722   1.056   4.014
 9344SOL    HW228276   5.600   0.975   4.054
 9345SOL     OW28277   6.472   1.667   4.062
 9345SOL    HW128278   6.397   1.650   4.004
 9345SOL    HW228279   6.441   1.737   4.120
 9346SOL     OW28280   5.805   0.622   5.718
 9346SOL    HW128281   5.718   0.617   5.758
 9346SOL    HW228282   5.790   0.603   5.626
 9347SOL     OW28283   5.803   0.312   6.584
 9347SOL    HW128284   5.841   0.266   6.659
 9347SOL    HW228285   5.728   0.258   6.560
 9348SOL     OW28286   5.595   0.398   6.216
 9348SOL    HW128287   5.511   0.416   6.257
 9348SOL    HW228288   5.576   0.331   6.150
 9349SOL     OW28289   6.146   1.282   6.756
 9349SOL    HW128290   6.064   1.309   6.715
 9349SOL    HW228291   6.171   1.357   6.810
 9350SOL     OW28292   0.065   1.543   6.347
 9350SOL    HW128293   0.099   1.453   6.346
 9350SOL    HW228294   0.038   1.560   6.257
 9351SOL     OW28295   6.689   0.718   6.273
 9351SOL    HW128296   6.753   0.789   6.266
 9351SOL    HW228297   6.658   0.722   6.364
 9352SOL     OW28298   6.340   1.136   6.633
 9352SOL    HW128299   6.270   1.167   6.691
 9352SOL    HW228300   6.372   1.215   6.589
 9353SOL     OW28301   6.271   0.996   6.229
 9353SOL    HW128302   6.337   0.989   6.298
 9353SOL    HW228303   6.203   1.051   6.267
 9354SOL     OW28304   5.919   1.408   6.650
 9354SOL    HW128305   5.839   1.378   6.608
 9354SOL    HW228306   5.959   1.468   6.587
 9355SOL     OW28307   5.805   1.717   6.053
 9355SOL    HW128308   5.826   1.791   6.110
 9355SOL    HW228309   5.880   1.709   5.995
 9356SOL     OW28310   5.818   1.446   6.122
 9356SOL    HW128311   5.799   1.539   6.125
 9356SOL    HW228312   5.762   1.408   6.190
 9357SOL     OW28313   5.853   1.093   6.476
 9357SOL    HW128314   5.850   1.006   6.515
 9357SOL    HW228315   5.798   1.147   6.534
 9358SOL     OW28316   6.172   1.836   6.941
 9358SOL    HW128317   6.102   1.796   6.993
 9358SOL    HW228318   6.207   1.906   6.997
 9359SOL     OW28319   6.162   0.985   5.727
 9359SOL    HW128320   6.211   1.030   5.658
 9359SOL    HW228321   6.201   1.017   5.809
 9360SOL     OW28322   5.706   0.659   6.148
 9360SOL    HW128323   5.678   0.570   6.170
 9360SOL    HW228324   5.698   0.707   6.230
 9361SOL     OW28325   5.626   1.589   5.705
 9361SOL    HW128326   5.608   1.497   5.725
 9361SOL    HW228327   5.600   1.637   5.783
 9362SOL     OW28328   6.204   1.392   6.320
 9362SOL    HW128329   6.159   1.308   6.330
 9362SOL    HW228330   6.186   1.418   6.230
 9363SOL     OW28331   6.821   1.188   0.027
 9363SOL    HW128332   6.869   1.148   6.955
 9363SOL    HW228333   6.888   1.235   0.077
 9364SOL     OW28334   6.415   0.025   6.098
 9364SOL    HW128335   6.447   0.114   6.081
 9364SOL    HW228336   6.320   0.035   6.103
 9365SOL     OW28337   5.777   0.978   6.851
 9365SOL    HW128338   5.856   0.928   6.831
 9365SOL    HW228339   5.705   0.923   6.819
 9366SOL     OW28340   6.178   0.714   5.856
 9366SOL    HW128341   6.181   0.800   5.814
 9366SOL    HW228342   6.114   0.724   5.926
 9367SOL     OW28343   6.859   0.375   6.481
 9367SOL    HW128344   6.766   0.360   6.498
 9367SOL    HW228345   6.903   0.332   6.555
 9368SOL     OW28346   6.404   0.589   0.053
 9368SOL    HW128347   6.347   0.644   0.105
 9368SOL    HW228348   6.347   0.550   6.987
 9369SOL     OW28349   6.573   0.368   6.805
 9369SOL    HW128350   6.510   0.430   6.842
 9369SOL    HW228351   6.531   0.337   6.724
 9370SOL     OW28352   6.638   0.702   6.008
 9370SOL    HW128353   6.653   0.702   6.102
 9370SOL    HW228354   6.554   0.656   5.997
 9371SOL     OW28355   5.675   0.823   6.365
 9371SOL    HW128356   5.756   0.817   6.416
 9371SOL    HW228357   5.629   0.899   6.401
 9372SOL     OW28358   5.738   1.852   0.141
 9372SOL    HW128359   5.692   1.777   0.178
 9372SOL    HW228360   5.692   1.870   0.059
 9373SOL     OW28361   6.476   0.353   5.785
 9373SOL    HW128362   6.522   0.409   5.722
 9373SOL    HW228363   6.448   0.277   5.733
 9374SOL     OW28364   6.937   1.133   6.107
 9374SOL    HW128365   6.988   1.115   6.029
 9374SOL    HW228366   6.885   1.210   6.086
 9375SOL     OW28367   6.090   0.197   6.497
 9375SOL    HW128368   6.137   0.248   6.563
 9375SOL    HW228369   6.101   0.247   6.416
 9376SOL     OW28370   6.574   1.452   6.060
 9376SOL    HW128371   6.546   1.525   6.004
 9376SOL    HW228372   6.539   1.474   6.146
 9377SOL     OW28373   5.939   1.815   6.453
 9377SOL    HW128374   5.979   1.729   6.465
 9377SOL    HW228375   6.008   1.877   6.479
 9378SOL     OW28376   5.898   0.961   5.842
 9378SOL    HW128377   5.981   0.980   5.798
 9378SOL    HW228378   5.870   0.877   5.805
 9379SOL     OW28379   6.719   1.771   5.830
 9379SOL    HW128380   6.639   1.745   5.873
 9379SOL    HW228381   6.728   1.710   5.756
 9380SOL     OW28382   6.046   1.738   5.904
 9380SOL    HW128383   6.093   1.792   5.968
 9380SOL    HW228384   6.115   1.701   5.849
 9381SOL     OW28385   5.854   1.800   6.821
 9381SOL    HW128386   5.908   1.752   6.884
 9381SOL    HW228387   5.806   1.733   6.773
 9382SOL     OW28388   6.524   1.701   6.477
 9382SOL    HW128389   6.603   1.653   6.502
 9382SOL    HW228390   6.484   1.649   6.408
 9383SOL     OW28391   5.983   0.691   6.058
 9383SOL    HW128392   5.999   0.597   6.071
 9383SOL    HW228393   5.890   0.702   6.076
 9384SOL     OW28394   6.237   0.112   5.684
 9384SOL    HW128395   6.271   0.040   5.737
 9384SOL    HW228396   6.172   0.071   5.627
 9385SOL     OW28397   6.456   1.520   6.772
 9385SOL    HW128398   6.441   1.482   6.685
 9385SOL    HW228399   6.472   1.445   6.829
 9386SOL     OW28400   6.403   1.387   6.531
 9386SOL    HW128401   6.488   1.375   6.487
 9386SOL    HW228402   6.341   1.394   6.459
 9387SOL     OW28403   6.514   0.513   6.484
 9387SOL    HW128404   6.488   0.509   6.392
 9387SOL    HW228405   6.544   0.425   6.504
 9388SOL     OW28406   6.148   0.068   6.083
 9388SOL    HW128407   6.069   0.055   6.136
 9388SOL    HW228408   6.124   0.135   6.020
 9389SOL     OW28409   6.993   1.125   5.606
 9389SOL    HW128410   0.021   1.081   5.686
 9389SOL    HW228411   6.925   1.186   5.634
 9390SOL     OW28412   5.906   0.059   5.773
 9390SOL    HW128413   5.950   0.140   5.798
 9390SOL    HW228414   5.936   6.994   5.836
 9391SOL     OW28415   6.541   0.267   6.039
 9391SOL    HW128416   6.511   0.299   5.954
 9391SOL    HW228417   6.636   0.280   6.038
 9392SOL     OW28418   6.783   1.572   6.378
 9392SOL    HW128419   6.790   1.640   6.311
 9392SOL    HW228420   6.872   1.560   6.411
 9393SOL     OW28421   6.059   1.155   6.311
 9393SOL    HW128422   5.994   1.135   6.378
 9393SOL    HW228423   6.013   1.142   6.228
 9394SOL     OW28424   6.833   1.795   6.193
 9394SOL    HW128425   6.857   1.857   6.125
 9394SOL    HW228426   6.766   1.840   6.244
 9395SOL     OW28427   6.605   0.533   5.613
 9395SOL    HW128428   6.564   0.618   5.600
 9395SOL    HW228429   6.669   0.548   5.683
 9396SOL     OW28430   6.164   0.220   6.780
 9396SOL    HW128431   6.175   0.131   6.747
 9396SOL    HW228432   6.071   0.227   6.800
 9397SOL     OW28433   6.447   0.459   6.225
 9397SOL    HW128434   6.406   0.519   6.162
 9397SOL    HW228435   6.475   0.385   6.172
 9398SOL     OW28436   6.542   0.034   6.346
 9398SOL    HW128437   6.486   0.025   6.269
 9398SOL    HW228438   6.592   6.952   6.349
 9399SOL     OW28439   6.075   1.424   5.741
 9399SOL    HW128440   5.997   1.394   5.789
 9399SOL    HW228441   6.076   1.370   5.662
 9400SOL     OW28442   6.096   0.254   5.883
 9400SOL    HW128443   6.161   0.217   5.822
 9400SOL    HW228444   6.078   0.341   5.847
 9401SOL     OW28445   0.219   1.573   0.234
 9401SOL    HW128446   0.253   1.638   0.172
 9401SOL    HW228447   0.297   1.525   0.263
 9402SOL     OW28448   6.725   1.219   6.686
 9402SOL    HW128449   6.644   1.204   6.735
 9402SOL    HW228450   6.695   1.251   6.601
 9403SOL     OW28451   6.296   1.063   5.957
 9403SOL    HW128452   6.282   1.042   6.049
 9403SOL    HW228453   6.372   1.009   5.931
 9404SOL     OW28454   6.012   0.817   6.850
 9404SOL    HW128455   6.058   0.841   6.930
 9404SOL    HW228456   5.978   0.730   6.867
 9405SOL     OW28457   6.834   0.399   6.849
 9405SOL    HW128458   6.834   0.486   6.889
 9405SOL    HW228459   6.743   0.384   6.822
 9406SOL     OW28460   5.681   1.568   6.867
 9406SOL    HW128461   5.631   1.606   6.940
 9406SOL    HW228462   5.768   1.551   6.904
 9407SOL     OW28463   5.919   1.122   6.075
 9407SOL    HW128464   5.921   1.196   6.014
 9407SOL    HW228465   5.918   1.044   6.019
 9408SOL     OW28466   6.137   0.532   6.443
 9408SOL    HW128467   6.149   0.590   6.368
 9408SOL    HW228468   6.205   0.558   6.505
 9409SOL     OW28469   6.827   1.367   6.010
 9409SOL    HW128470   6.873   1.444   6.044
 9409SOL    HW228471   6.734   1.386   6.027
 9410SOL     OW28472   6.819   1.477   6.766
 9410SOL    HW128473   6.911   1.459   6.789
 9410SOL    HW228474   6.783   1.391   6.743
 9411SOL     OW28475   5.944   1.490   6.905
 9411SOL    HW128476   5.925   1.453   6.819
 9411SOL    HW228477   6.033   1.525   6.897
 9412SOL     OW28478   6.172   0.873   6.624
 9412SOL    HW128479   6.204   0.964   6.624
 9412SOL    HW228480   6.116   0.868   6.702
 9413SOL     OW28481   6.949   0.837   6.603
 9413SOL    HW128482   6.860   0.816   6.575
 9413SOL    HW228483   6.982   0.756   6.641
 9414SOL     OW28484   6.769   0.538   5.832
 9414SOL    HW128485   6.790   0.459   5.882
 9414SOL    HW228486   6.733   0.598   5.897
 9415SOL     OW28487   5.897   0.209   6.835
 9415SOL    HW128488   5.848   0.205   6.917
 9415SOL    HW228489   5.893   0.120   6.800
 9416SOL     OW28490   5.608   1.304   6.868
 9416SOL    HW128491   5.663   1.262   6.934
 9416SOL    HW228492   5.637   1.395   6.866
 9417SOL     OW28493   6.306   0.628   6.638
 9417SOL    HW128494   6.383   0.618   6.583
 9417SOL    HW228495   6.277   0.718   6.623
 9418SOL     OW28496   5.908   0.057   6.213
 9418SOL    HW128497   5.884   0.145   6.243
 9418SOL    HW228498   5.841   0.000   6.251
 9419SOL     OW28499   0.208   0.462   5.923
 9419SOL    HW128500   0.194   0.372   5.952
 9419SOL    HW228501   0.185   0.516   5.999
 9420SOL     OW28502   6.616   0.759   6.551
 9420SOL    HW128503   6.604   0.773   6.644
 9420SOL    HW228504   6.590   0.668   6.537
 9421SOL     OW28505   6.894   0.813   5.608
 9421SOL    HW128506   6.958   0.757   5.652
 9421SOL    HW228507   6.940   0.844   5.530
 9422SOL     OW28508   6.654   1.332   6.444
 9422SOL    HW128509   6.659   1.264   6.377
 9422SOL    HW228510   6.701   1.407   6.405
 9423SOL     OW28511   5.898   0.813   6.531
 9423SOL    HW128512   5.991   0.834   6.525
 9423SOL    HW228513   5.896   0.723   6.564
 9424SOL     OW28514   5.930   0.543   6.610
 9424SOL    HW128515   5.885   0.461   6.592
 9424SOL    HW228516   6.003   0.544   6.550
 9425SOL     OW28517   6.800   0.228   0.070
 9425SOL    HW128518   6.755   0.272   0.142
 9425SOL    HW228519   6.776   0.279   6.992
 9426SOL     OW28520   5.594   1.315   5.778
 9426SOL    HW128521   5.507   1.332   5.743
 9426SOL    HW228522   5.589   1.226   5.814
 9427SOL     OW28523   5.672   1.789   6.523
 9427SOL    HW128524   5.645   1.709   6.479
 9427SOL    HW228525   5.765   1.799   6.501
 9428SOL     OW28526   6.074   1.575   6.489
 9428SOL    HW128527   6.142   1.637   6.514
 9428SOL    HW228528   6.118   1.511   6.433
 9429SOL     OW28529   6.564   0.787   6.818
 9429SOL    HW128530   6.633   0.776   6.883
 9429SOL    HW228531   6.483   0.765   6.864
 9430SOL     OW28532   5.639   0.555   6.716
 9430SOL    HW128533   5.682   0.508   6.644
 9430SOL    HW228534   5.710   0.580   6.774
 9431SOL     OW28535   6.403   0.573   5.953
 9431SOL    HW128536   6.409   0.499   5.893
 9431SOL    HW228537   6.327   0.623   5.922
 9432SOL     OW28538   6.274   0.466   6.852
 9432SOL    HW128539   6.237   0.382   6.824
 9432SOL    HW228540   6.275   0.520   6.773
 9433SOL     OW28541   6.447   1.663   0.013
 9433SOL    HW128542   6.459   1.638   6.921
 9433SOL    HW228543   6.521   1.721   0.032
 9434SOL     OW28544   6.044   0.491   5.758
 9434SOL    HW128545   6.104   0.561   5.786
 9434SOL    HW228546   5.959   0.533   5.752
 9435SOL     OW28547   5.742   1.146   0.061
 9435SOL    HW128548   5.799   1.105   0.125
 9435SOL    HW228549   5.750   1.092   6.983
 9436SOL     OW28550   6.887   1.019   6.807
 9436SOL    HW128551   6.917   0.965   6.733
 9436SOL    HW228552   6.836   1.089   6.766
 9437SOL     OW28553   6.886   0.866   5.895
 9437SOL    HW128554   6.825   0.828   5.958
 9437SOL    HW228555   6.849   0.847   5.810
 9438SOL     OW28556   6.847   1.746   6.690
 9438SOL    HW128557   6.929   1.748   6.642
 9438SOL    HW228558   6.837   1.655   6.718
 9439SOL     OW28559   5.671   1.260   6.601
 9439SOL    HW128560   5.645   1.270   6.692
 9439SOL    HW228561   5.603   1.205   6.563
 9440SOL     OW28562   6.977   1.586   6.083
 9440SOL    HW128563   0.057   1.628   6.051
 9440SOL    HW228564   6.921   1.659   6.110
 9441SOL     OW28565   6.867   0.919   6.250
 9441SOL    HW128566   6.951   0.879   6.273
 9441SOL    HW228567   6.889   0.996   6.198
 9442SOL     OW28568   6.252   1.630   5.744
 9442SOL    HW128569   6.266   1.643   5.650
 9442SOL    HW228570   6.199   1.550   5.749
 9443SOL     OW28571   5.845   0.311   6.301
 9443SOL    HW128572   5.760   0.346   6.275
 9443SOL    HW228573   5.845   0.316   6.397
 9444SOL     OW28574   6.750   1.598   5.627
 9444SOL    HW128575   6.769   1.506   5.607
 9444SOL    HW228576   6.688   1.625   5.558
 9445SOL     OW28577   6.362   1.021   6.957
 9445SOL    HW128578   6.414   0.999   6.879
 9445SOL    HW228579   6.413   1.090   0.000
 9446SOL     OW28580   6.502   0.910   5.873
 9446SOL    HW128581   6.566   0.943   5.809
 9446SOL    HW228582   6.550   0.844   5.922
 9447SOL     OW28583   6.646   1.108   6.293
 9447SOL    HW128584   6.573   1.058   6.331
 9447SOL    HW228585   6.709   1.041   6.266
 9448SOL     OW28586   6.600   0.248   6.521
 9448SOL    HW128587   6.565   0.198   6.448
 9448SOL    HW228588   6.602   0.187   6.594
 9449SOL     OW28589   6.192   1.487   6.064
 9449SOL    HW128590   6.242   1.438   5.999
 9449SOL    HW228591   6.114   1.516   6.016
 9450SOL     OW28592   5.848   1.341   5.879
 9450SOL    HW128593   5.756   1.337   5.854
 9450SOL    HW228594   5.847   1.383   5.966
 9451SOL     OW28595   5.661   0.331   5.621
 9451SOL    HW128596   5.569   0.316   5.601
 9451SOL    HW228597   5.685   0.408   5.570
 9452SOL     OW28598   5.655   0.174   5.896
 9452SOL    HW128599   5.664   0.240   5.826
 9452SOL    HW228600   5.701   0.097   5.862
 9453SOL     OW28601   5.972   1.731   0.083
 9453SOL    HW128602   5.896   1.780   0.116
 9453SOL    HW228603   5.972   1.650   0.133
 9454SOL     OW28604   6.822   0.311   6.023
 9454SOL    HW128605   6.894   0.268   5.978
 9454SOL    HW228606   6.863   0.356   6.097
 9455SOL     OW28607   6.173   0.733   6.258
 9455SOL    HW128608   6.212   0.819   6.244
 9455SOL    HW228609   6.108   0.725   6.187
 9456SOL     OW28610   6.423   1.369   5.619
 9456SOL    HW128611   6.410   1.389   5.711
 9456SOL    HW228612   6.455   1.451   5.581
 9457SOL     OW28613   6.250   1.780   6.518
 9457SOL    HW128614   6.232   1.873   6.504
 9457SOL    HW228615   6.346   1.774   6.518
 9458SOL     OW28616   6.456   0.971   6.439
 9458SOL    HW128617   6.505   0.899   6.478
 9458SOL    HW228618   6.417   1.017   6.514
 9459SOL     OW28619   6.676   0.981   5.676
 9459SOL    HW128620   6.646   1.037   5.604
 9459SOL    HW228621   6.744   0.927   5.636
 9460SOL     OW28622   5.678   1.225   6.250
 9460SOL    HW128623   5.691   1.183   6.335
 9460SOL    HW228624   5.746   1.188   6.194
 9461SOL     OW28625   6.013   0.428   6.108
 9461SOL    HW128626   6.042   0.356   6.052
 9461SOL    HW228627   5.963   0.386   6.178
 9462SOL     OW28628   5.896   0.552   6.882
 9462SOL    HW128629   5.959   0.494   6.925
 9462SOL    HW228630   5.916   0.545   6.789
 9463SOL     OW28631   6.416   1.577   6.260
 9463SOL    HW128632   6.387   1.644   6.199
 9463SOL    HW228633   6.341   1.518   6.268
 9464SOL     OW28634   6.977   0.230   6.690
 9464SOL    HW128635   6.999   0.155   6.745
 9464SOL    HW228636   6.931   0.290   6.749
 9465SOL     OW28637   6.574   0.052   6.702
 9465SOL    HW128638   6.493   0.002   6.693
 9465SOL    HW228639   6.608   0.027   6.788
 9466SOL     OW28640   6.362   1.334   5.905
 9466SOL    HW128641   6.336   1.242   5.914
 9466SOL    HW228642   6.443   1.341   5.956
 9467SOL     OW28643   6.198   1.570   6.857
 9467SOL    HW128644   6.198   1.663   6.880
 9467SOL    HW228645   6.286   1.554   6.822
 9468SOL     OW28646   5.628   1.064   5.894
 9468SOL    HW128647   5.721   1.056   5.876
 9468SOL    HW228648   5.600   0.975   5.916
 9469SOL     OW28649   6.472   1.668   5.923
 9469SOL    HW128650   6.398   1.650   5.866
 9469SOL    HW228651   6.442   1.737   5.981
 9470SOL     OW28652   5.805   2.508   0.139
 9470SOL    HW128653   5.715   2.488   0.163
 9470SOL    HW228654   5.811   2.485   0.046
 9471SOL     OW28655   5.809   2.147   0.993
 9471SOL    HW128656   5.838   2.111   1.077
 9471SOL    HW228657   5.720   2.114   0.981
 9472SOL     OW28658   5.585   2.252   0.644
 9472SOL    HW128659   5.506   2.283   0.689
 9472SOL    HW228660   5.558   2.171   0.602
 9473SOL     OW28661   6.155   3.161   1.188
 9473SOL    HW128662   6.070   3.167   1.143
 9473SOL    HW228663   6.172   3.251   1.217
 9474SOL     OW28664   0.062   3.407   0.763
 9474SOL    HW128665   0.094   3.316   0.765
 9474SOL    HW228666   0.028   3.418   0.674
 9475SOL     OW28667   6.691   2.579   0.686
 9475SOL    HW128668   6.754   2.650   0.680
 9475SOL    HW228669   6.657   2.584   0.776
 9476SOL     OW28670   6.330   2.998   1.051
 9476SOL    HW128671   6.264   3.037   1.109
 9476SOL    HW228672   6.369   3.072   1.006
 9477SOL     OW28673   6.464   2.623   1.827
 9477SOL    HW128674   6.444   2.691   1.891
 9477SOL    HW228675   6.484   2.671   1.747
 9478SOL     OW28676   6.271   2.854   0.645
 9478SOL    HW128677   6.338   2.849   0.713
 9478SOL    HW228678   6.203   2.911   0.682
 9479SOL     OW28679   6.296   3.008   1.817
 9479SOL    HW128680   6.340   3.087   1.847
 9479SOL    HW228681   6.215   3.040   1.776
 9480SOL     OW28682   5.918   3.276   1.067
 9480SOL    HW128683   5.844   3.236   1.022
 9480SOL    HW228684   5.962   3.329   0.999
 9481SOL     OW28685   6.038   2.253   1.476
 9481SOL    HW128686   6.113   2.194   1.485
 9481SOL    HW228687   5.962   2.198   1.496
 9482SOL     OW28688   5.801   3.586   0.472
 9482SOL    HW128689   5.823   3.662   0.526
 9482SOL    HW228690   5.883   3.561   0.430
 9483SOL     OW28691   6.726   3.212   1.707
 9483SOL    HW128692   6.811   3.174   1.684
 9483SOL    HW228693   6.667   3.137   1.714
 9484SOL     OW28694   5.797   3.309   0.528
 9484SOL    HW128695   5.783   3.403   0.542
 9484SOL    HW228696   5.750   3.267   0.600
 9485SOL     OW28697   5.852   2.954   0.889
 9485SOL    HW128698   5.848   2.865   0.926
 9485SOL    HW228699   5.794   3.006   0.945
 9486SOL     OW28700   6.182   3.658   1.423
 9486SOL    HW128701   6.103   3.638   1.473
 9486SOL    HW228702   6.208   3.745   1.453
 9487SOL     OW28703   6.167   2.826   0.146
 9487SOL    HW128704   6.225   2.848   0.073
 9487SOL    HW228705   6.203   2.875   0.221
 9488SOL     OW28706   5.707   2.511   0.558
 9488SOL    HW128707   5.676   2.424   0.583
 9488SOL    HW228708   5.699   2.564   0.637
 9489SOL     OW28709   5.593   3.455   0.134
 9489SOL    HW128710   5.528   3.386   0.123
 9489SOL    HW228711   5.578   3.488   0.222
 9490SOL     OW28712   5.710   2.607   1.584
 9490SOL    HW128713   5.800   2.640   1.586
 9490SOL    HW228714   5.656   2.685   1.584
 9491SOL     OW28715   6.202   3.251   0.740
 9491SOL    HW128716   6.158   3.167   0.748
 9491SOL    HW228717   6.191   3.275   0.648
 9492SOL     OW28718   6.830   3.081   1.430
 9492SOL    HW128719   6.866   3.013   1.373
 9492SOL    HW228720   6.895   3.090   1.500
 9493SOL     OW28721   6.407   1.873   0.526
 9493SOL    HW128722   6.447   1.955   0.498
 9493SOL    HW228723   6.313   1.891   0.527
 9494SOL     OW28724   5.773   2.821   1.283
 9494SOL    HW128725   5.859   2.783   1.267
 9494SOL    HW228726   5.716   2.778   1.219
 9495SOL     OW28727   6.791   3.678   1.619
 9495SOL    HW128728   6.768   3.739   1.549
 9495SOL    HW228729   6.783   3.592   1.580
 9496SOL     OW28730   5.930   2.110   1.837
 9496SOL    HW128731   5.969   2.196   1.858
 9496SOL    HW228732   5.836   2.122   1.853
 9497SOL     OW28733   6.188   2.574   0.267
 9497SOL    HW128734   6.191   2.662   0.229
 9497SOL    HW228735   6.125   2.583   0.339
 9498SOL     OW28736   6.870   2.184   0.893
 9498SOL    HW128737   6.777   2.172   0.913
 9498SOL    HW228738   6.916   2.149   0.969
 9499SOL     OW28739   6.387   2.478   1.447
 9499SOL    HW128740   6.357   2.452   1.535
 9499SOL    HW228741   6.350   2.411   1.389
 9500SOL     OW28742   6.938   2.324   1.685
 9500SOL    HW128743   6.921   2.417   1.704
 9500SOL    HW228744   0.034   2.318   1.681
 9501SOL     OW28745   6.542   2.747   1.588
 9501SOL    HW128746   6.595   2.678   1.549
 9501SOL    HW228747   6.494   2.785   1.514
 9502SOL     OW28748   6.586   2.277   1.233
 9502SOL    HW128749   6.495   2.289   1.259
 9502SOL    HW228750   6.580   2.235   1.147
 9503SOL     OW28751   6.642   2.564   0.421
 9503SOL    HW128752   6.659   2.568   0.515
 9503SOL    HW228753   6.557   2.520   0.414
 9504SOL     OW28754   5.677   2.679   0.775
 9504SOL    HW128755   5.756   2.674   0.829
 9504SOL    HW228756   5.629   2.754   0.810
 9505SOL     OW28757   5.710   3.737   1.584
 9505SOL    HW128758   5.714   3.714   1.677
 9505SOL    HW228759   5.627   3.699   1.554
 9506SOL     OW28760   6.463   2.214   0.213
 9506SOL    HW128761   6.474   2.278   0.142
 9506SOL    HW228762   6.495   2.132   0.176
 9507SOL     OW28763   6.938   2.999   0.535
 9507SOL    HW128764   6.986   2.971   0.457
 9507SOL    HW228765   6.886   3.074   0.505
 9508SOL     OW28766   6.138   2.037   0.900
 9508SOL    HW128767   6.140   2.069   0.990
 9508SOL    HW228768   6.137   2.115   0.846
 9509SOL     OW28769   6.576   3.303   0.479
 9509SOL    HW128770   6.543   3.377   0.428
 9509SOL    HW228771   6.544   3.320   0.568
 9510SOL     OW28772   5.940   3.677   0.873
 9510SOL    HW128773   5.984   3.593   0.877
 9510SOL    HW228774   6.009   3.741   0.891
 9511SOL     OW28775   6.793   3.424   1.505
 9511SOL    HW128776   6.797   3.350   1.566
 9511SOL    HW228777   6.754   3.388   1.426
 9512SOL     OW28778   5.895   2.821   0.226
 9512SOL    HW128779   5.985   2.831   0.196
 9512SOL    HW228780   5.873   2.730   0.208
 9513SOL     OW28781   6.056   3.129   1.738
 9513SOL    HW128782   6.029   3.135   1.646
 9513SOL    HW228783   5.973   3.128   1.786
 9514SOL     OW28784   6.686   3.626   0.235
 9514SOL    HW128785   6.622   3.572   0.283
 9514SOL    HW228786   6.708   3.574   0.158
 9515SOL     OW28787   5.789   2.130   1.504
 9515SOL    HW128788   5.708   2.181   1.508
 9515SOL    HW228789   5.765   2.045   1.540
 9516SOL     OW28790   0.237   3.239   0.035
 9516SOL    HW128791   0.183   3.278   0.104
 9516SOL    HW228792   0.214   3.146   0.037
 9517SOL     OW28793   6.062   3.560   0.378
 9517SOL    HW128794   6.095   3.640   0.418
 9517SOL    HW228795   6.122   3.543   0.306
 9518SOL     OW28796   5.843   3.652   1.227
 9518SOL    HW128797   5.892   3.580   1.266
 9518SOL    HW228798   5.833   3.627   1.135
 9519SOL     OW28799   6.530   3.561   0.896
 9519SOL    HW128800   6.613   3.514   0.904
 9519SOL    HW228801   6.481   3.512   0.829
 9520SOL     OW28802   5.986   2.554   0.465
 9520SOL    HW128803   6.002   2.461   0.484
 9520SOL    HW228804   5.893   2.567   0.483
 9521SOL     OW28805   6.348   2.140   1.758
 9521SOL    HW128806   6.427   2.086   1.754
 9521SOL    HW228807   6.299   2.106   1.833
 9522SOL     OW28808   6.460   3.391   1.194
 9522SOL    HW128809   6.442   3.353   1.107
 9522SOL    HW228810   6.528   3.334   1.231
 9523SOL     OW28811   6.400   3.251   0.950
 9523SOL    HW128812   6.485   3.238   0.908
 9523SOL    HW228813   6.338   3.258   0.878
 9524SOL     OW28814   6.515   2.370   0.903
 9524SOL    HW128815   6.490   2.362   0.811
 9524SOL    HW228816   6.545   2.282   0.926
 9525SOL     OW28817   6.140   1.933   0.501
 9525SOL    HW128818   6.060   1.931   0.553
 9525SOL    HW228819   6.128   2.006   0.440
 9526SOL     OW28820   6.529   2.111   0.462
 9526SOL    HW128821   6.499   2.150   0.380
 9526SOL    HW228822   6.624   2.126   0.462
 9527SOL     OW28823   6.656   2.527   1.463
 9527SOL    HW128824   6.566   2.497   1.461
 9527SOL    HW228825   6.708   2.447   1.466
 9528SOL     OW28826   6.778   3.441   0.800
 9528SOL    HW128827   6.794   3.503   0.729
 9528SOL    HW228828   6.864   3.424   0.838
 9529SOL     OW28829   6.063   3.016   0.731
 9529SOL    HW128830   5.992   2.994   0.791
 9529SOL    HW228831   6.024   3.006   0.644
 9530SOL     OW28832   6.832   3.660   0.605
 9530SOL    HW128833   6.846   3.719   0.531
 9530SOL    HW228834   6.767   3.704   0.659
 9531SOL     OW28835   6.689   2.464   0.020
 9531SOL    HW128836   6.594   2.459   0.026
 9531SOL    HW228837   6.720   2.438   0.107
 9532SOL     OW28838   5.672   2.415   1.393
 9532SOL    HW128839   5.764   2.416   1.366
 9532SOL    HW228840   5.666   2.485   1.458
 9533SOL     OW28841   6.144   2.092   1.174
 9533SOL    HW128842   6.185   2.017   1.218
 9533SOL    HW228843   6.052   2.088   1.200
 9534SOL     OW28844   6.449   2.314   0.644
 9534SOL    HW128845   6.415   2.375   0.579
 9534SOL    HW228846   6.472   2.236   0.594
 9535SOL     OW28847   6.608   1.910   0.741
 9535SOL    HW128848   6.543   1.907   0.670
 9535SOL    HW228849   6.582   1.839   0.799
 9536SOL     OW28850   6.060   3.290   0.152
 9536SOL    HW128851   6.003   3.239   0.209
 9536SOL    HW228852   6.018   3.286   0.066
 9537SOL     OW28853   6.092   2.124   0.311
 9537SOL    HW128854   6.119   2.068   0.238
 9537SOL    HW228855   6.069   2.207   0.270
 9538SOL     OW28856   6.624   3.212   1.325
 9538SOL    HW128857   6.546   3.183   1.373
 9538SOL    HW228858   6.696   3.167   1.368
 9539SOL     OW28859   6.734   3.089   1.096
 9539SOL    HW128860   6.672   3.118   1.163
 9539SOL    HW228861   6.694   3.115   1.013
 9540SOL     OW28862   6.498   1.957   1.383
 9540SOL    HW128863   6.521   1.936   1.293
 9540SOL    HW228864   6.578   1.993   1.421
 9541SOL     OW28865   6.572   2.977   1.732
 9541SOL    HW128866   6.481   2.997   1.754
 9541SOL    HW228867   6.567   2.902   1.673
 9542SOL     OW28868   6.296   2.924   0.373
 9542SOL    HW128869   6.280   2.904   0.465
 9542SOL    HW228870   6.370   2.869   0.349
 9543SOL     OW28871   6.009   2.683   1.254
 9543SOL    HW128872   6.077   2.691   1.320
 9543SOL    HW228873   5.974   2.594   1.266
 9544SOL     OW28874   6.853   2.233   1.297
 9544SOL    HW128875   6.904   2.312   1.313
 9544SOL    HW228876   6.767   2.266   1.270
 9545SOL     OW28877   5.662   3.436   1.358
 9545SOL    HW128878   5.633   3.506   1.300
 9545SOL    HW228879   5.757   3.434   1.349
 9546SOL     OW28880   5.954   2.982   0.486
 9546SOL    HW128881   5.933   3.054   0.427
 9546SOL    HW228882   5.943   2.903   0.433
 9547SOL     OW28883   6.131   2.392   0.860
 9547SOL    HW128884   6.145   2.450   0.785
 9547SOL    HW228885   6.200   2.417   0.922
 9548SOL     OW28886   6.831   3.225   0.420
 9548SOL    HW128887   6.875   3.304   0.452
 9548SOL    HW228888   6.738   3.242   0.435
 9549SOL     OW28889   6.854   3.344   1.139
 9549SOL    HW128890   6.930   3.333   1.197
 9549SOL    HW228891   6.816   3.256   1.133
 9550SOL     OW28892   5.932   3.393   1.308
 9550SOL    HW128893   5.921   3.346   1.225
 9550SOL    HW228894   6.026   3.404   1.317
 9551SOL     OW28895   6.004   2.609   1.604
 9551SOL    HW128896   6.069   2.650   1.547
 9551SOL    HW228897   6.039   2.521   1.619
 9552SOL     OW28898   6.575   1.985   1.758
 9552SOL    HW128899   6.627   2.061   1.733
 9552SOL    HW228900   6.630   1.910   1.735
 9553SOL     OW28901   6.082   1.899   1.751
 9553SOL    HW128902   6.034   1.846   1.688
 9553SOL    HW228903   6.026   1.974   1.767
 9554SOL     OW28904   6.172   2.736   1.033
 9554SOL    HW128905   6.205   2.826   1.034
 9554SOL    HW228906   6.114   2.731   1.109
 9555SOL     OW28907   6.950   2.711   1.025
 9555SOL    HW128908   6.861   2.694   0.994
 9555SOL    HW228909   6.983   2.626   1.052
 9556SOL     OW28910   6.766   2.378   0.264
 9556SOL    HW128911   6.779   2.306   0.325
 9556SOL    HW228912   6.732   2.449   0.318
 9557SOL     OW28913   5.882   2.058   1.246
 9557SOL    HW128914   5.845   2.089   1.329
 9557SOL    HW228915   5.865   1.964   1.246
 9558SOL     OW28916   5.631   3.174   1.273
 9558SOL    HW128917   5.663   3.118   1.344
 9558SOL    HW228918   5.637   3.263   1.308
 9559SOL     OW28919   6.306   2.491   1.053
 9559SOL    HW128920   6.382   2.479   0.996
 9559SOL    HW228921   6.276   2.580   1.034
 9560SOL     OW28922   5.896   1.927   0.627
 9560SOL    HW128923   5.871   2.017   0.649
 9560SOL    HW228924   5.904   1.884   0.713
 9561SOL     OW28925   0.185   2.284   0.377
 9561SOL    HW128926   0.274   2.269   0.409
 9561SOL    HW228927   0.154   2.360   0.427
 9562SOL     OW28928   6.612   2.620   0.958
 9562SOL    HW128929   6.603   2.635   1.052
 9562SOL    HW228930   6.588   2.528   0.946
 9563SOL     OW28931   6.552   3.432   1.710
 9563SOL    HW128932   6.540   3.471   1.623
 9563SOL    HW228933   6.603   3.353   1.694
 9564SOL     OW28934   5.937   2.778   1.811
 9564SOL    HW128935   6.017   2.797   1.859
 9564SOL    HW228936   5.963   2.716   1.744
 9565SOL     OW28937   6.890   2.708   0.031
 9565SOL    HW128938   6.910   2.623   6.993
 9565SOL    HW228939   6.905   2.770   6.960
 9566SOL     OW28940   6.647   3.197   0.857
 9566SOL    HW128941   6.654   3.127   0.792
 9566SOL    HW228942   6.697   3.270   0.819
 9567SOL     OW28943   5.894   2.672   0.947
 9567SOL    HW128944   5.988   2.691   0.939
 9567SOL    HW228945   5.891   2.581   0.977
 9568SOL     OW28946   5.911   2.394   1.014
 9568SOL    HW128947   5.876   2.306   1.001
 9568SOL    HW228948   5.988   2.397   0.957
 9569SOL     OW28949   6.692   2.221   1.683
 9569SOL    HW128950   6.648   2.279   1.744
 9569SOL    HW228951   6.784   2.249   1.684
 9570SOL     OW28952   6.739   2.051   1.470
 9570SOL    HW128953   6.722   2.111   1.543
 9570SOL    HW228954   6.785   2.105   1.405
 9571SOL     OW28955   5.676   3.642   0.944
 9571SOL    HW128956   5.645   3.566   0.896
 9571SOL    HW228957   5.765   3.657   0.911
 9572SOL     OW28958   6.076   3.437   0.904
 9572SOL    HW128959   6.146   3.498   0.927
 9572SOL    HW228960   6.118   3.373   0.846
 9573SOL     OW28961   6.562   2.645   1.224
 9573SOL    HW128962   6.623   2.625   1.295
 9573SOL    HW228963   6.479   2.607   1.251
 9574SOL     OW28964   5.623   2.412   1.117
 9574SOL    HW128965   5.703   2.407   1.066
 9574SOL    HW228966   5.652   2.412   1.208
 9575SOL     OW28967   5.778   2.385   1.733
 9575SOL    HW128968   5.828   2.339   1.666
 9575SOL    HW228969   5.743   2.462   1.687
 9576SOL     OW28970   6.404   2.433   0.384
 9576SOL    HW128971   6.409   2.358   0.325
 9576SOL    HW228972   6.330   2.484   0.352
 9577SOL     OW28973   5.822   3.410   1.722
 9577SOL    HW128974   5.802   3.473   1.790
 9577SOL    HW228975   5.831   3.326   1.768
 9578SOL     OW28976   6.305   2.308   1.253
 9578SOL    HW128977   6.246   2.236   1.230
 9578SOL    HW228978   6.294   2.371   1.181
 9579SOL     OW28979   6.496   3.547   1.466
 9579SOL    HW128980   6.481   3.503   1.382
 9579SOL    HW228981   6.487   3.640   1.445
 9580SOL     OW28982   6.040   2.360   0.182
 9580SOL    HW128983   6.100   2.429   0.210
 9580SOL    HW228984   5.953   2.401   0.184
 9581SOL     OW28985   5.724   3.006   1.475
 9581SOL    HW128986   5.728   2.960   1.559
 9581SOL    HW228987   5.742   2.938   1.410
 9582SOL     OW28988   6.891   2.903   1.226
 9582SOL    HW128989   6.917   2.837   1.161
 9582SOL    HW228990   6.835   2.964   1.177
 9583SOL     OW28991   6.891   2.716   0.311
 9583SOL    HW128992   6.812   2.677   0.351
 9583SOL    HW228993   6.878   2.705   0.217
 9584SOL     OW28994   6.851   3.616   1.113
 9584SOL    HW128995   6.928   3.623   1.057
 9584SOL    HW228996   6.840   3.522   1.126
 9585SOL     OW28997   5.674   3.128   1.009
 9585SOL    HW128998   5.653   3.142   1.101
 9585SOL    HW228999   5.603   3.071   0.977
 9586SOL     OW29000   6.266   3.535   1.745
 9586SOL    HW129001   6.209   3.610   1.728
 9586SOL    HW229002   6.341   3.547   1.687
 9587SOL     OW29003   6.529   1.961   0.120
 9587SOL    HW129004   6.605   1.995   0.073
 9587SOL    HW229005   6.565   1.894   0.178
 9588SOL     OW29006   6.974   3.447   0.501
 9588SOL    HW129007   0.053   3.490   0.467
 9588SOL    HW229008   6.917   3.520   0.527
 9589SOL     OW29009   5.726   3.658   1.842
 9589SOL    HW129010   5.677   3.590   1.888
 9589SOL    HW229011   5.773   3.705   1.912
 9590SOL     OW29012   6.866   2.781   0.669
 9590SOL    HW129013   6.951   2.739   0.686
 9590SOL    HW229014   6.888   2.860   0.619
 9591SOL     OW29015   6.379   3.136   1.421
 9591SOL    HW129016   6.351   3.181   1.501
 9591SOL    HW229017   6.308   3.154   1.358
 9592SOL     OW29018   6.251   3.477   0.199
 9592SOL    HW129019   6.304   3.495   0.121
 9592SOL    HW229020   6.198   3.402   0.175
 9593SOL     OW29021   5.842   2.178   0.715
 9593SOL    HW129022   5.755   2.212   0.693
 9593SOL    HW229023   5.841   2.173   0.811
 9594SOL     OW29024   6.738   3.484   0.003
 9594SOL    HW129025   6.821   3.458   0.043
 9594SOL    HW229026   6.737   3.441   6.918
 9595SOL     OW29027   6.412   2.868   1.378
 9595SOL    HW129028   6.450   2.864   1.290
 9595SOL    HW229029   6.403   2.961   1.396
 9596SOL     OW29030   6.497   2.768   0.291
 9596SOL    HW129031   6.549   2.796   0.216
 9596SOL    HW229032   6.554   2.706   0.337
 9597SOL     OW29033   5.951   3.167   1.493
 9597SOL    HW129034   5.941   3.243   1.435
 9597SOL    HW229035   5.874   3.114   1.477
 9598SOL     OW29036   6.644   2.971   0.708
 9598SOL    HW129037   6.572   2.921   0.747
 9598SOL    HW229038   6.707   2.905   0.681
 9599SOL     OW29039   6.608   2.103   0.964
 9599SOL    HW129040   6.603   2.056   0.880
 9599SOL    HW229041   6.604   2.034   1.030
 9600SOL     OW29042   6.202   3.339   0.485
 9600SOL    HW129043   6.238   3.294   0.409
 9600SOL    HW229044   6.137   3.400   0.449
 9601SOL     OW29045   5.866   3.177   0.307
 9601SOL    HW129046   5.780   3.156   0.269
 9601SOL    HW229047   5.845   3.230   0.384
 9602SOL     OW29048   5.702   2.900   1.729
 9602SOL    HW129049   5.625   2.870   1.778
 9602SOL    HW229050   5.775   2.854   1.769
 9603SOL     OW29051   6.261   2.058   1.500
 9603SOL    HW129052   6.344   2.036   1.458
 9603SOL    HW229053   6.285   2.090   1.587
 9604SOL     OW29054   5.692   2.178   0.009
 9604SOL    HW129055   5.634   2.126   6.955
 9604SOL    HW229056   5.711   2.256   6.957
 9605SOL     OW29057   5.633   2.032   0.327
 9605SOL    HW129058   5.626   2.121   0.294
 9605SOL    HW229059   5.701   1.992   0.273
 9606SOL     OW29060   6.210   2.690   1.436
 9606SOL    HW129061   6.266   2.766   1.422
 9606SOL    HW229062   6.270   2.616   1.443
 9607SOL     OW29063   6.308   2.419   1.697
 9607SOL    HW129064   6.350   2.476   1.761
 9607SOL    HW229065   6.321   2.330   1.731
 9608SOL     OW29066   6.991   3.124   1.646
 9608SOL    HW129067   7.000   3.064   1.720
 9608SOL    HW229068   0.072   3.111   1.596
 9609SOL     OW29069   5.955   3.604   1.567
 9609SOL    HW129070   5.872   3.650   1.552
 9609SOL    HW229071   5.929   3.521   1.607
 9610SOL     OW29072   6.801   2.173   0.445
 9610SOL    HW129073   6.872   2.120   0.408
 9610SOL    HW229074   6.842   2.219   0.518
 9611SOL     OW29075   6.170   2.594   0.673
 9611SOL    HW129076   6.212   2.679   0.661
 9611SOL    HW229077   6.107   2.587   0.602
 9612SOL     OW29078   6.446   3.240   0.028
 9612SOL    HW129079   6.413   3.210   0.112
 9612SOL    HW229080   6.458   3.334   0.039
 9613SOL     OW29081   6.250   3.644   0.937
 9613SOL    HW129082   6.232   3.736   0.919
 9613SOL    HW229083   6.345   3.637   0.934
 9614SOL     OW29084   6.455   2.834   0.855
 9614SOL    HW129085   6.505   2.760   0.891
 9614SOL    HW229086   6.415   2.876   0.932
 9615SOL     OW29087   6.656   2.841   0.085
 9615SOL    HW129088   6.692   2.929   0.072
 9615SOL    HW229089   6.730   2.783   0.067
 9616SOL     OW29090   5.810   3.159   1.851
 9616SOL    HW129091   5.754   3.090   1.815
 9616SOL    HW229092   5.779   3.171   1.940
 9617SOL     OW29093   5.672   3.094   0.667
 9617SOL    HW129094   5.702   3.045   0.743
 9617SOL    HW229095   5.711   3.048   0.592
 9618SOL     OW29096   6.264   3.274   1.625
 9618SOL    HW129097   6.190   3.229   1.665
 9618SOL    HW229098   6.268   3.359   1.669
 9619SOL     OW29099   6.014   2.295   0.526
 9619SOL    HW129100   6.040   2.222   0.470
 9619SOL    HW229101   5.963   2.253   0.596
 9620SOL     OW29102   5.924   2.424   1.293
 9620SOL    HW129103   5.977   2.364   1.347
 9620SOL    HW229104   5.939   2.394   1.203
 9621SOL     OW29105   6.414   3.442   0.679
 9621SOL    HW129106   6.396   3.505   0.609
 9621SOL    HW229107   6.340   3.382   0.677
 9622SOL     OW29108   6.990   2.078   1.117
 9622SOL    HW129109   6.989   1.989   1.150
 9622SOL    HW229110   6.944   2.129   1.183
 9623SOL     OW29111   6.600   1.876   1.132
 9623SOL    HW129112   6.551   1.806   1.088
 9623SOL    HW229113   6.689   1.842   1.137
 9624SOL     OW29114   6.372   3.182   0.302
 9624SOL    HW129115   6.338   3.096   0.323
 9624SOL    HW229116   6.447   3.193   0.360
 9625SOL     OW29117   6.205   3.420   1.287
 9625SOL    HW129118   6.205   3.502   1.335
 9625SOL    HW229119   6.294   3.414   1.251
 9626SOL     OW29120   5.674   2.917   0.374
 9626SOL    HW129121   5.750   2.889   0.323
 9626SOL    HW229122   5.619   2.839   0.382
 9627SOL     OW29123   6.467   3.520   0.361
 9627SOL    HW129124   6.391   3.500   0.307
 9627SOL    HW229125   6.442   3.599   0.410
 9628SOL     OW29126   5.807   2.485   1.994
 9628SOL    HW129127   5.718   2.480   2.028
 9628SOL    HW229128   5.797   2.463   1.901
 9629SOL     OW29129   5.810   2.147   2.855
 9629SOL    HW129130   5.838   2.111   2.939
 9629SOL    HW229131   5.721   2.114   2.844
 9630SOL     OW29132   5.584   2.247   2.501
 9630SOL    HW129133   5.503   2.273   2.545
 9630SOL    HW229134   5.559   2.170   2.450
 9631SOL     OW29135   6.155   3.162   3.049
 9631SOL    HW129136   6.070   3.168   3.006
 9631SOL    HW229137   6.172   3.251   3.079
 9632SOL     OW29138   0.064   3.405   2.624
 9632SOL    HW129139   0.097   3.315   2.623
 9632SOL    HW229140   0.037   3.421   2.534
 9633SOL     OW29141   6.688   2.580   2.547
 9633SOL    HW129142   6.753   2.650   2.540
 9633SOL    HW229143   6.657   2.585   2.638
 9634SOL     OW29144   6.327   2.997   2.912
 9634SOL    HW129145   6.263   3.037   2.971
 9634SOL    HW229146   6.368   3.072   2.868
 9635SOL     OW29147   6.463   2.622   3.688
 9635SOL    HW129148   6.447   2.690   3.754
 9635SOL    HW229149   6.484   2.671   3.608
 9636SOL     OW29150   6.271   2.857   2.505
 9636SOL    HW129151   6.338   2.850   2.574
 9636SOL    HW229152   6.203   2.913   2.543
 9637SOL     OW29153   6.295   3.007   3.678
 9637SOL    HW129154   6.340   3.086   3.709
 9637SOL    HW229155   6.215   3.039   3.638
 9638SOL     OW29156   5.918   3.277   2.929
 9638SOL    HW129157   5.844   3.237   2.883
 9638SOL    HW229158   5.962   3.329   2.862
 9639SOL     OW29159   6.038   2.253   3.337
 9639SOL    HW129160   6.114   2.195   3.347
 9639SOL    HW229161   5.963   2.198   3.358
 9640SOL     OW29162   5.805   3.579   2.330
 9640SOL    HW129163   5.827   3.653   2.386
 9640SOL    HW229164   5.880   3.571   2.270
 9641SOL     OW29165   6.726   3.212   3.568
 9641SOL    HW129166   6.811   3.174   3.546
 9641SOL    HW229167   6.668   3.137   3.576
 9642SOL     OW29168   5.819   3.308   2.399
 9642SOL    HW129169   5.800   3.402   2.398
 9642SOL    HW229170   5.761   3.272   2.466
 9643SOL     OW29171   5.854   2.953   2.752
 9643SOL    HW129172   5.851   2.865   2.789
 9643SOL    HW229173   5.796   3.005   2.808
 9644SOL     OW29174   6.181   3.659   3.283
 9644SOL    HW129175   6.103   3.638   3.334
 9644SOL    HW229176   6.208   3.745   3.314
 9645SOL     OW29177   6.163   2.847   2.003
 9645SOL    HW129178   6.211   2.892   1.934
 9645SOL    HW229179   6.202   2.879   2.085
 9646SOL     OW29180   5.705   2.518   2.423
 9646SOL    HW129181   5.675   2.430   2.445
 9646SOL    HW229182   5.696   2.567   2.506
 9647SOL     OW29183   5.627   3.451   1.982
 9647SOL    HW129184   5.608   3.359   2.002
 9647SOL    HW229185   5.600   3.499   2.060
 9648SOL     OW29186   5.712   2.607   3.446
 9648SOL    HW129187   5.803   2.638   3.448
 9648SOL    HW229188   5.660   2.687   3.449
 9649SOL     OW29189   6.202   3.255   2.596
 9649SOL    HW129190   6.158   3.170   2.604
 9649SOL    HW229191   6.186   3.281   2.505
 9650SOL     OW29192   6.830   3.081   3.291
 9650SOL    HW129193   6.867   3.013   3.234
 9650SOL    HW229194   6.894   3.090   3.362
 9651SOL     OW29195   6.407   1.870   2.380
 9651SOL    HW129196   6.446   1.953   2.354
 9651SOL    HW229197   6.313   1.889   2.383
 9652SOL     OW29198   5.773   2.822   3.143
 9652SOL    HW129199   5.860   2.784   3.129
 9652SOL    HW229200   5.716   2.775   3.082
 9653SOL     OW29201   6.789   3.679   3.482
 9653SOL    HW129202   6.767   3.740   3.411
 9653SOL    HW229203   6.782   3.592   3.442
 9654SOL     OW29204   5.931   2.111   3.697
 9654SOL    HW129205   5.970   2.195   3.721
 9654SOL    HW229206   5.837   2.123   3.714
 9655SOL     OW29207   6.180   2.577   2.134
 9655SOL    HW129208   6.182   2.662   2.089
 9655SOL    HW229209   6.115   2.588   2.203
 9656SOL     OW29210   6.873   2.182   2.750
 9656SOL    HW129211   6.780   2.172   2.771
 9656SOL    HW229212   6.918   2.147   2.827
 9657SOL     OW29213   6.386   2.478   3.310
 9657SOL    HW129214   6.356   2.452   3.397
 9657SOL    HW229215   6.350   2.411   3.251
 9658SOL     OW29216   6.942   2.330   3.545
 9658SOL    HW129217   6.924   2.417   3.581
 9658SOL    HW229218   0.037   2.326   3.536
 9659SOL     OW29219   6.542   2.748   3.450
 9659SOL    HW129220   6.595   2.679   3.411
 9659SOL    HW229221   6.493   2.785   3.376
 9660SOL     OW29222   6.586   2.276   3.094
 9660SOL    HW129223   6.495   2.288   3.121
 9660SOL    HW229224   6.580   2.234   3.008
 9661SOL     OW29225   6.636   2.564   2.282
 9661SOL    HW129226   6.652   2.565   2.377
 9661SOL    HW229227   6.553   2.517   2.272
 9662SOL     OW29228   5.674   2.683   2.641
 9662SOL    HW129229   5.755   2.677   2.692
 9662SOL    HW229230   5.629   2.760   2.677
 9663SOL     OW29231   5.710   3.736   3.447
 9663SOL    HW129232   5.715   3.712   3.539
 9663SOL    HW229233   5.625   3.702   3.418
 9664SOL     OW29234   6.484   2.212   2.057
 9664SOL    HW129235   6.524   2.274   1.996
 9664SOL    HW229236   6.483   2.129   2.009
 9665SOL     OW29237   6.935   2.994   2.383
 9665SOL    HW129238   6.990   2.980   2.306
 9665SOL    HW229239   6.884   3.073   2.362
 9666SOL     OW29240   6.138   2.036   2.762
 9666SOL    HW129241   6.140   2.069   2.853
 9666SOL    HW229242   6.137   2.116   2.709
 9667SOL     OW29243   6.574   3.314   2.338
 9667SOL    HW129244   6.545   3.387   2.282
 9667SOL    HW229245   6.541   3.337   2.425
 9668SOL     OW29246   5.940   3.677   2.735
 9668SOL    HW129247   5.985   3.593   2.740
 9668SOL    HW229248   6.008   3.742   2.753
 9669SOL     OW29249   6.792   3.424   3.368
 9669SOL    HW129250   6.798   3.350   3.428
 9669SOL    HW229251   6.755   3.388   3.287
 9670SOL     OW29252   5.898   2.823   2.118
 9670SOL    HW129253   5.981   2.842   2.074
 9670SOL    HW229254   5.870   2.740   2.079
 9671SOL     OW29255   6.056   3.129   3.599
 9671SOL    HW129256   6.030   3.134   3.508
 9671SOL    HW229257   5.974   3.128   3.648
 9672SOL     OW29258   6.719   3.632   2.106
 9672SOL    HW129259   6.638   3.605   2.150
 9672SOL    HW229260   6.728   3.572   2.032
 9673SOL     OW29261   5.789   2.130   3.366
 9673SOL    HW129262   5.709   2.182   3.374
 9673SOL    HW229263   5.766   2.044   3.403
 9674SOL     OW29264   6.047   3.599   2.180
 9674SOL    HW129265   6.094   3.654   2.243
 9674SOL    HW229266   6.115   3.563   2.124
 9675SOL     OW29267   5.841   3.651   3.089
 9675SOL    HW129268   5.892   3.581   3.130
 9675SOL    HW229269   5.835   3.626   2.997
 9676SOL     OW29270   6.530   3.561   2.757
 9676SOL    HW129271   6.613   3.515   2.767
 9676SOL    HW229272   6.483   3.512   2.690
 9677SOL     OW29273   5.983   2.555   2.334
 9677SOL    HW129274   5.999   2.462   2.348
 9677SOL    HW229275   5.890   2.567   2.350
 9678SOL     OW29276   6.234   1.977   1.963
 9678SOL    HW129277   6.288   1.901   1.983
 9678SOL    HW229278   6.178   1.948   1.891
 9679SOL     OW29279   6.348   2.140   3.619
 9679SOL    HW129280   6.427   2.086   3.616
 9679SOL    HW229281   6.300   2.107   3.695
 9680SOL     OW29282   6.460   3.390   3.055
 9680SOL    HW129283   6.442   3.353   2.969
 9680SOL    HW229284   6.528   3.334   3.093
 9681SOL     OW29285   6.400   3.250   2.811
 9681SOL    HW129286   6.485   3.237   2.769
 9681SOL    HW229287   6.339   3.257   2.738
 9682SOL     OW29288   6.514   2.370   2.762
 9682SOL    HW129289   6.489   2.362   2.670
 9682SOL    HW229290   6.544   2.283   2.786
 9683SOL     OW29291   6.140   1.926   2.357
 9683SOL    HW129292   6.060   1.925   2.409
 9683SOL    HW229293   6.130   2.002   2.300
 9684SOL     OW29294   6.992   2.987   1.881
 9684SOL    HW129295   0.019   2.943   1.962
 9684SOL    HW229296   6.923   3.048   1.908
 9685SOL     OW29297   5.873   1.910   2.048
 9685SOL    HW129298   5.929   1.974   2.004
 9685SOL    HW229299   5.934   1.850   2.090
 9686SOL     OW29300   6.532   2.112   2.313
 9686SOL    HW129301   6.504   2.150   2.230
 9686SOL    HW229302   6.626   2.127   2.316
 9687SOL     OW29303   6.656   2.529   3.324
 9687SOL    HW129304   6.566   2.496   3.322
 9687SOL    HW229305   6.710   2.450   3.332
 9688SOL     OW29306   6.780   3.440   2.661
 9688SOL    HW129307   6.796   3.504   2.591
 9688SOL    HW229308   6.866   3.422   2.698
 9689SOL     OW29309   6.059   3.017   2.586
 9689SOL    HW129310   5.993   2.996   2.652
 9689SOL    HW229311   6.014   3.005   2.502
 9690SOL     OW29312   6.835   3.658   2.470
 9690SOL    HW129313   6.860   3.720   2.402
 9690SOL    HW229314   6.768   3.704   2.521
 9691SOL     OW29315   6.609   2.394   1.884
 9691SOL    HW129316   6.566   2.478   1.870
 9691SOL    HW229317   6.670   2.409   1.955
 9692SOL     OW29318   5.672   2.416   3.255
 9692SOL    HW129319   5.764   2.415   3.228
 9692SOL    HW229320   5.666   2.485   3.320
 9693SOL     OW29321   6.144   2.091   3.036
 9693SOL    HW129322   6.185   2.018   3.082
 9693SOL    HW229323   6.052   2.087   3.063
 9694SOL     OW29324   6.448   2.313   2.501
 9694SOL    HW129325   6.410   2.375   2.439
 9694SOL    HW229326   6.472   2.238   2.448
 9695SOL     OW29327   6.607   1.912   2.604
 9695SOL    HW129328   6.543   1.909   2.533
 9695SOL    HW229329   6.583   1.840   2.662
 9696SOL     OW29330   6.075   3.286   2.016
 9696SOL    HW129331   5.998   3.255   2.064
 9696SOL    HW229332   6.076   3.232   1.937
 9697SOL     OW29333   6.113   2.124   2.171
 9697SOL    HW129334   6.163   2.080   2.102
 9697SOL    HW229335   6.085   2.206   2.131
 9698SOL     OW29336   6.624   3.211   3.186
 9698SOL    HW129337   6.546   3.183   3.235
 9698SOL    HW229338   6.697   3.167   3.229
 9699SOL     OW29339   6.734   3.088   2.957
 9699SOL    HW129340   6.673   3.118   3.025
 9699SOL    HW229341   6.693   3.115   2.875
 9700SOL     OW29342   6.498   1.957   3.245
 9700SOL    HW129343   6.522   1.936   3.155
 9700SOL    HW229344   6.578   1.993   3.283
 9701SOL     OW29345   6.572   2.977   3.594
 9701SOL    HW129346   6.481   2.996   3.616
 9701SOL    HW229347   6.567   2.902   3.535
 9702SOL     OW29348   6.296   2.925   2.233
 9702SOL    HW129349   6.282   2.904   2.325
 9702SOL    HW229350   6.371   2.871   2.207
 9703SOL     OW29351   6.009   2.683   3.116
 9703SOL    HW129352   6.077   2.691   3.182
 9703SOL    HW229353   5.974   2.594   3.128
 9704SOL     OW29354   6.853   2.233   3.159
 9704SOL    HW129355   6.905   2.312   3.176
 9704SOL    HW229356   6.767   2.266   3.132
 9705SOL     OW29357   5.663   3.435   3.220
 9705SOL    HW129358   5.636   3.507   3.163
 9705SOL    HW229359   5.758   3.433   3.212
 9706SOL     OW29360   5.919   2.984   2.351
 9706SOL    HW129361   5.922   3.057   2.289
 9706SOL    HW229362   5.918   2.906   2.295
 9707SOL     OW29363   6.131   2.392   2.722
 9707SOL    HW129364   6.145   2.450   2.647
 9707SOL    HW229365   6.199   2.417   2.784
 9708SOL     OW29366   6.826   3.230   2.286
 9708SOL    HW129367   6.873   3.306   2.319
 9708SOL    HW229368   6.734   3.249   2.302
 9709SOL     OW29369   6.854   3.344   3.002
 9709SOL    HW129370   6.931   3.335   3.059
 9709SOL    HW229371   6.818   3.255   2.996
 9710SOL     OW29372   5.932   3.392   3.171
 9710SOL    HW129373   5.921   3.346   3.087
 9710SOL    HW229374   6.026   3.404   3.180
 9711SOL     OW29375   6.005   2.608   3.466
 9711SOL    HW129376   6.069   2.650   3.409
 9711SOL    HW229377   6.041   2.521   3.483
 9712SOL     OW29378   6.576   1.986   3.619
 9712SOL    HW129379   6.628   2.062   3.596
 9712SOL    HW229380   6.631   1.911   3.597
 9713SOL     OW29381   6.083   1.899   3.612
 9713SOL    HW129382   6.034   1.846   3.549
 9713SOL    HW229383   6.026   1.974   3.628
 9714SOL     OW29384   6.172   2.737   2.895
 9714SOL    HW129385   6.206   2.826   2.898
 9714SOL    HW229386   6.115   2.731   2.972
 9715SOL     OW29387   6.949   2.710   2.886
 9715SOL    HW129388   6.860   2.692   2.857
 9715SOL    HW229389   6.983   2.625   2.914
 9716SOL     OW29390   6.768   2.401   2.107
 9716SOL    HW129391   6.783   2.321   2.157
 9716SOL    HW229392   6.731   2.462   2.170
 9717SOL     OW29393   5.881   2.058   3.108
 9717SOL    HW129394   5.846   2.089   3.192
 9717SOL    HW229395   5.864   1.964   3.108
 9718SOL     OW29396   5.628   3.174   3.135
 9718SOL    HW129397   5.662   3.118   3.205
 9718SOL    HW229398   5.636   3.263   3.170
 9719SOL     OW29399   6.305   2.491   2.914
 9719SOL    HW129400   6.382   2.479   2.857
 9719SOL    HW229401   6.276   2.580   2.895
 9720SOL     OW29402   5.897   1.922   2.487
 9720SOL    HW129403   5.872   2.012   2.507
 9720SOL    HW229404   5.904   1.880   2.573
 9721SOL     OW29405   0.226   2.299   2.208
 9721SOL    HW129406   0.171   2.221   2.202
 9721SOL    HW229407   0.190   2.349   2.281
 9722SOL     OW29408   6.612   2.620   2.820
 9722SOL    HW129409   6.603   2.635   2.914
 9722SOL    HW229410   6.588   2.528   2.808
 9723SOL     OW29411   6.552   3.432   3.571
 9723SOL    HW129412   6.540   3.470   3.485
 9723SOL    HW229413   6.604   3.352   3.556
 9724SOL     OW29414   5.937   2.779   3.672
 9724SOL    HW129415   6.017   2.798   3.721
 9724SOL    HW229416   5.964   2.716   3.605
 9725SOL     OW29417   6.881   2.680   1.884
 9725SOL    HW129418   6.924   2.601   1.918
 9725SOL    HW229419   6.929   2.700   1.803
 9726SOL     OW29420   6.647   3.197   2.718
 9726SOL    HW129421   6.655   3.127   2.653
 9726SOL    HW229422   6.698   3.270   2.681
 9727SOL     OW29423   5.895   2.672   2.808
 9727SOL    HW129424   5.988   2.692   2.801
 9727SOL    HW229425   5.891   2.582   2.839
 9728SOL     OW29426   5.910   2.394   2.875
 9728SOL    HW129427   5.875   2.306   2.863
 9728SOL    HW229428   5.988   2.397   2.819
 9729SOL     OW29429   6.696   2.222   3.545
 9729SOL    HW129430   6.651   2.280   3.607
 9729SOL    HW229431   6.786   2.252   3.546
 9730SOL     OW29432   6.739   2.052   3.333
 9730SOL    HW129433   6.722   2.112   3.405
 9730SOL    HW229434   6.784   2.106   3.267
 9731SOL     OW29435   5.595   3.177   2.055
 9731SOL    HW129436   5.507   3.195   2.020
 9731SOL    HW229437   5.589   3.088   2.090
 9732SOL     OW29438   5.676   3.642   2.805
 9732SOL    HW129439   5.646   3.565   2.756
 9732SOL    HW229440   5.765   3.657   2.773
 9733SOL     OW29441   6.076   3.436   2.766
 9733SOL    HW129442   6.146   3.498   2.789
 9733SOL    HW229443   6.119   3.374   2.707
 9734SOL     OW29444   6.562   2.646   3.086
 9734SOL    HW129445   6.623   2.626   3.156
 9734SOL    HW229446   6.479   2.608   3.114
 9735SOL     OW29447   5.623   2.413   2.979
 9735SOL    HW129448   5.704   2.407   2.928
 9735SOL    HW229449   5.652   2.413   3.070
 9736SOL     OW29450   5.777   2.386   3.595
 9736SOL    HW129451   5.831   2.341   3.530
 9736SOL    HW229452   5.742   2.462   3.549
 9737SOL     OW29453   6.402   2.431   2.230
 9737SOL    HW129454   6.407   2.357   2.169
 9737SOL    HW229455   6.328   2.483   2.199
 9738SOL     OW29456   5.821   3.409   3.583
 9738SOL    HW129457   5.802   3.474   3.652
 9738SOL    HW229458   5.831   3.327   3.630
 9739SOL     OW29459   6.305   2.308   3.114
 9739SOL    HW129460   6.246   2.236   3.092
 9739SOL    HW229461   6.295   2.371   3.043
 9740SOL     OW29462   6.495   3.547   3.328
 9740SOL    HW129463   6.482   3.503   3.244
 9740SOL    HW229464   6.487   3.641   3.308
 9741SOL     OW29465   6.044   2.353   2.040
 9741SOL    HW129466   6.104   2.423   2.066
 9741SOL    HW229467   5.959   2.396   2.032
 9742SOL     OW29468   5.723   3.005   3.336
 9742SOL    HW129469   5.727   2.960   3.420
 9742SOL    HW229470   5.742   2.938   3.271
 9743SOL     OW29471   6.891   2.902   3.087
 9743SOL    HW129472   6.917   2.837   3.022
 9743SOL    HW229473   6.835   2.963   3.038
 9744SOL     OW29474   6.893   2.727   2.171
 9744SOL    HW129475   6.829   2.692   2.233
 9744SOL    HW229476   6.851   2.715   2.085
 9745SOL     OW29477   6.850   3.615   2.973
 9745SOL    HW129478   6.928   3.623   2.918
 9745SOL    HW229479   6.840   3.521   2.987
 9746SOL     OW29480   5.674   3.126   2.872
 9746SOL    HW129481   5.654   3.141   2.964
 9746SOL    HW229482   5.603   3.070   2.841
 9747SOL     OW29483   6.266   3.534   3.607
 9747SOL    HW129484   6.211   3.610   3.590
 9747SOL    HW229485   6.342   3.547   3.550
 9748SOL     OW29486   6.977   3.448   2.359
 9748SOL    HW129487   0.057   3.489   2.327
 9748SOL    HW229488   6.921   3.521   2.385
 9749SOL     OW29489   5.726   3.658   3.705
 9749SOL    HW129490   5.677   3.590   3.751
 9749SOL    HW229491   5.773   3.705   3.774
 9750SOL     OW29492   6.865   2.780   2.525
 9750SOL    HW129493   6.949   2.743   2.552
 9750SOL    HW229494   6.888   2.857   2.473
 9751SOL     OW29495   6.379   3.136   3.283
 9751SOL    HW129496   6.352   3.181   3.363
 9751SOL    HW229497   6.308   3.154   3.221
 9752SOL     OW29498   6.252   3.492   2.020
 9752SOL    HW129499   6.266   3.505   1.926
 9752SOL    HW229500   6.199   3.412   2.025
 9753SOL     OW29501   5.841   2.173   2.576
 9753SOL    HW129502   5.755   2.208   2.553
 9753SOL    HW229503   5.842   2.170   2.671
 9754SOL     OW29504   6.750   3.460   1.902
 9754SOL    HW129505   6.769   3.368   1.881
 9754SOL    HW229506   6.689   3.488   1.834
 9755SOL     OW29507   6.412   2.868   3.240
 9755SOL    HW129508   6.452   2.864   3.153
 9755SOL    HW229509   6.403   2.961   3.258
 9756SOL     OW29510   6.502   2.773   2.149
 9756SOL    HW129511   6.565   2.807   2.086
 9756SOL    HW229512   6.549   2.706   2.198
 9757SOL     OW29513   5.951   3.167   3.355
 9757SOL    HW129514   5.941   3.243   3.298
 9757SOL    HW229515   5.873   3.113   3.339
 9758SOL     OW29516   6.646   2.971   2.570
 9758SOL    HW129517   6.574   2.921   2.608
 9758SOL    HW229518   6.710   2.904   2.544
 9759SOL     OW29519   6.609   2.104   2.826
 9759SOL    HW129520   6.605   2.057   2.743
 9759SOL    HW229521   6.605   2.035   2.893
 9760SOL     OW29522   6.192   3.350   2.340
 9760SOL    HW129523   6.244   3.300   2.277
 9760SOL    HW229524   6.116   3.380   2.291
 9761SOL     OW29525   5.849   3.202   2.157
 9761SOL    HW129526   5.757   3.198   2.130
 9761SOL    HW229527   5.848   3.244   2.243
 9762SOL     OW29528   5.701   2.896   3.587
 9762SOL    HW129529   5.625   2.869   3.638
 9762SOL    HW229530   5.775   2.853   3.629
 9763SOL     OW29531   6.261   2.058   3.362
 9763SOL    HW129532   6.345   2.036   3.320
 9763SOL    HW229533   6.285   2.090   3.449
 9764SOL     OW29534   5.666   2.189   1.892
 9764SOL    HW129535   5.582   2.169   1.851
 9764SOL    HW229536   5.697   2.267   1.847
 9765SOL     OW29537   5.645   2.016   2.161
 9765SOL    HW129538   5.632   2.093   2.106
 9765SOL    HW229539   5.731   1.982   2.134
 9766SOL     OW29540   6.210   2.690   3.298
 9766SOL    HW129541   6.266   2.766   3.284
 9766SOL    HW229542   6.270   2.616   3.305
 9767SOL     OW29543   6.307   2.419   3.559
 9767SOL    HW129544   6.350   2.477   3.623
 9767SOL    HW229545   6.321   2.331   3.594
 9768SOL     OW29546   6.989   3.123   3.508
 9768SOL    HW129547   6.999   3.065   3.583
 9768SOL    HW229548   0.070   3.111   3.458
 9769SOL     OW29549   5.955   3.604   3.429
 9769SOL    HW129550   5.872   3.649   3.414
 9769SOL    HW229551   5.929   3.520   3.468
 9770SOL     OW29552   6.811   2.181   2.294
 9770SOL    HW129553   6.884   2.132   2.257
 9770SOL    HW229554   6.848   2.225   2.370
 9771SOL     OW29555   6.171   2.595   2.537
 9771SOL    HW129556   6.212   2.680   2.522
 9771SOL    HW229557   6.107   2.586   2.466
 9772SOL     OW29558   6.423   3.232   1.894
 9772SOL    HW129559   6.411   3.254   1.987
 9772SOL    HW229560   6.456   3.312   1.854
 9773SOL     OW29561   6.250   3.643   2.796
 9773SOL    HW129562   6.231   3.736   2.781
 9773SOL    HW229563   6.346   3.638   2.797
 9774SOL     OW29564   6.455   2.834   2.716
 9774SOL    HW129565   6.505   2.761   2.751
 9774SOL    HW229566   6.415   2.876   2.792
 9775SOL     OW29567   6.675   2.849   1.955
 9775SOL    HW129568   6.643   2.903   1.882
 9775SOL    HW229569   6.742   2.793   1.916
 9776SOL     OW29570   5.812   3.160   3.714
 9776SOL    HW129571   5.752   3.093   3.682
 9776SOL    HW229572   5.787   3.171   3.806
 9777SOL     OW29573   5.677   3.089   2.527
 9777SOL    HW129574   5.694   3.045   2.610
 9777SOL    HW229575   5.743   3.053   2.467
 9778SOL     OW29576   6.263   3.274   3.486
 9778SOL    HW129577   6.190   3.229   3.528
 9778SOL    HW229578   6.268   3.359   3.530
 9779SOL     OW29579   6.013   2.294   2.386
 9779SOL    HW129580   6.045   2.224   2.330
 9779SOL    HW229581   5.963   2.249   2.455
 9780SOL     OW29582   5.923   2.423   3.155
 9780SOL    HW129583   5.976   2.364   3.209
 9780SOL    HW229584   5.939   2.394   3.065
 9781SOL     OW29585   6.414   3.444   2.538
 9781SOL    HW129586   6.388   3.510   2.474
 9781SOL    HW229587   6.340   3.384   2.541
 9782SOL     OW29588   6.989   2.079   2.977
 9782SOL    HW129589   6.990   1.989   3.011
 9782SOL    HW229590   6.944   2.130   3.044
 9783SOL     OW29591   6.600   1.876   2.994
 9783SOL    HW129592   6.551   1.806   2.950
 9783SOL    HW229593   6.690   1.843   2.999
 9784SOL     OW29594   6.361   3.196   2.183
 9784SOL    HW129595   6.335   3.104   2.191
 9784SOL    HW229596   6.443   3.201   2.232
 9785SOL     OW29597   6.205   3.420   3.148
 9785SOL    HW129598   6.204   3.503   3.197
 9785SOL    HW229599   6.294   3.413   3.113
 9786SOL     OW29600   6.905   1.947   2.008
 9786SOL    HW129601   6.934   1.898   1.930
 9786SOL    HW229602   6.833   1.895   2.043
 9787SOL     OW29603   5.628   2.926   2.172
 9787SOL    HW129604   5.721   2.918   2.153
 9787SOL    HW229605   5.600   2.837   2.193
 9788SOL     OW29606   6.471   3.529   2.200
 9788SOL    HW129607   6.397   3.512   2.142
 9788SOL    HW229608   6.441   3.599   2.257
 9789SOL     OW29609   5.806   2.486   3.856
 9789SOL    HW129610   5.717   2.480   3.892
 9789SOL    HW229611   5.796   2.464   3.763
 9790SOL     OW29612   5.810   2.146   4.717
 9790SOL    HW129613   5.838   2.111   4.801
 9790SOL    HW229614   5.721   2.114   4.705
 9791SOL     OW29615   5.583   2.248   4.363
 9791SOL    HW129616   5.503   2.275   4.407
 9791SOL    HW229617   5.558   2.170   4.313
 9792SOL     OW29618   6.155   3.162   4.911
 9792SOL    HW129619   6.070   3.167   4.868
 9792SOL    HW229620   6.172   3.251   4.942
 9793SOL     OW29621   0.064   3.405   4.486
 9793SOL    HW129622   0.097   3.315   4.485
 9793SOL    HW229623   0.037   3.421   4.396
 9794SOL     OW29624   6.688   2.580   4.409
 9794SOL    HW129625   6.753   2.650   4.402
 9794SOL    HW229626   6.657   2.585   4.500
 9795SOL     OW29627   6.328   2.997   4.774
 9795SOL    HW129628   6.263   3.037   4.833
 9795SOL    HW229629   6.369   3.072   4.730
 9796SOL     OW29630   6.463   2.622   5.551
 9796SOL    HW129631   6.445   2.690   5.616
 9796SOL    HW229632   6.484   2.671   5.471
 9797SOL     OW29633   6.271   2.857   4.367
 9797SOL    HW129634   6.338   2.850   4.435
 9797SOL    HW229635   6.203   2.913   4.405
 9798SOL     OW29636   6.296   3.007   5.540
 9798SOL    HW129637   6.340   3.086   5.571
 9798SOL    HW229638   6.215   3.039   5.500
 9799SOL     OW29639   5.918   3.277   4.791
 9799SOL    HW129640   5.844   3.237   4.746
 9799SOL    HW229641   5.962   3.329   4.724
 9800SOL     OW29642   6.038   2.252   5.198
 9800SOL    HW129643   6.114   2.194   5.209
 9800SOL    HW229644   5.963   2.198   5.220
 9801SOL     OW29645   5.805   3.579   4.192
 9801SOL    HW129646   5.827   3.653   4.248
 9801SOL    HW229647   5.880   3.571   4.133
 9802SOL     OW29648   6.725   3.212   5.430
 9802SOL    HW129649   6.810   3.174   5.408
 9802SOL    HW229650   6.667   3.137   5.438
 9803SOL     OW29651   5.819   3.308   4.260
 9803SOL    HW129652   5.800   3.401   4.261
 9803SOL    HW229653   5.761   3.271   4.327
 9804SOL     OW29654   5.854   2.953   4.614
 9804SOL    HW129655   5.851   2.865   4.651
 9804SOL    HW229656   5.797   3.005   4.670
 9805SOL     OW29657   6.181   3.659   5.145
 9805SOL    HW129658   6.103   3.638   5.197
 9805SOL    HW229659   6.208   3.745   5.177
 9806SOL     OW29660   6.162   2.847   3.866
 9806SOL    HW129661   6.211   2.892   3.796
 9806SOL    HW229662   6.202   2.879   3.947
 9807SOL     OW29663   5.704   2.519   4.285
 9807SOL    HW129664   5.675   2.431   4.307
 9807SOL    HW229665   5.696   2.568   4.367
 9808SOL     OW29666   5.624   3.451   3.843
 9808SOL    HW129667   5.607   3.359   3.864
 9808SOL    HW229668   5.599   3.499   3.922
 9809SOL     OW29669   5.711   2.607   5.307
 9809SOL    HW129670   5.801   2.639   5.311
 9809SOL    HW229671   5.658   2.686   5.311
 9810SOL     OW29672   6.202   3.255   4.458
 9810SOL    HW129673   6.159   3.170   4.466
 9810SOL    HW229674   6.186   3.281   4.367
 9811SOL     OW29675   6.831   3.081   5.152
 9811SOL    HW129676   6.867   3.013   5.096
 9811SOL    HW229677   6.894   3.090   5.224
 9812SOL     OW29678   6.406   1.870   4.242
 9812SOL    HW129679   6.446   1.953   4.215
 9812SOL    HW229680   6.313   1.888   4.245
 9813SOL     OW29681   5.774   2.822   5.005
 9813SOL    HW129682   5.860   2.784   4.990
 9813SOL    HW229683   5.715   2.774   4.946
 9814SOL     OW29684   6.793   3.679   5.343
 9814SOL    HW129685   6.768   3.739   5.273
 9814SOL    HW229686   6.784   3.592   5.303
 9815SOL     OW29687   5.931   2.112   5.558
 9815SOL    HW129688   5.970   2.196   5.583
 9815SOL    HW229689   5.838   2.122   5.575
 9816SOL     OW29690   6.180   2.576   3.995
 9816SOL    HW129691   6.183   2.661   3.951
 9816SOL    HW229692   6.115   2.587   4.065
 9817SOL     OW29693   6.872   2.182   4.613
 9817SOL    HW129694   6.779   2.172   4.634
 9817SOL    HW229695   6.918   2.147   4.689
 9818SOL     OW29696   6.387   2.478   5.171
 9818SOL    HW129697   6.357   2.453   5.259
 9818SOL    HW229698   6.350   2.411   5.113
 9819SOL     OW29699   6.942   2.330   5.407
 9819SOL    HW129700   6.923   2.416   5.443
 9819SOL    HW229701   0.037   2.327   5.398
 9820SOL     OW29702   6.542   2.748   5.312
 9820SOL    HW129703   6.595   2.678   5.273
 9820SOL    HW229704   6.493   2.785   5.238
 9821SOL     OW29705   6.586   2.276   4.956
 9821SOL    HW129706   6.495   2.289   4.983
 9821SOL    HW229707   6.580   2.234   4.870
 9822SOL     OW29708   6.636   2.564   4.144
 9822SOL    HW129709   6.652   2.565   4.239
 9822SOL    HW229710   6.554   2.517   4.134
 9823SOL     OW29711   5.674   2.686   4.502
 9823SOL    HW129712   5.755   2.678   4.553
 9823SOL    HW229713   5.629   2.762   4.539
 9824SOL     OW29714   5.710   3.736   5.309
 9824SOL    HW129715   5.715   3.713   5.401
 9824SOL    HW229716   5.625   3.701   5.280
 9825SOL     OW29717   6.483   2.212   3.919
 9825SOL    HW129718   6.525   2.275   3.860
 9825SOL    HW229719   6.485   2.129   3.871
 9826SOL     OW29720   6.936   2.995   4.245
 9826SOL    HW129721   6.989   2.978   4.167
 9826SOL    HW229722   6.885   3.072   4.223
 9827SOL     OW29723   6.138   2.037   4.625
 9827SOL    HW129724   6.140   2.068   4.715
 9827SOL    HW229725   6.137   2.117   4.572
 9828SOL     OW29726   6.573   3.314   4.199
 9828SOL    HW129727   6.545   3.387   4.144
 9828SOL    HW229728   6.541   3.336   4.287
 9829SOL     OW29729   5.940   3.677   4.597
 9829SOL    HW129730   5.984   3.593   4.602
 9829SOL    HW229731   6.008   3.742   4.615
 9830SOL     OW29732   6.793   3.424   5.229
 9830SOL    HW129733   6.798   3.350   5.290
 9830SOL    HW229734   6.754   3.387   5.150
 9831SOL     OW29735   5.898   2.823   3.980
 9831SOL    HW129736   5.981   2.842   3.936
 9831SOL    HW229737   5.870   2.739   3.943
 9832SOL     OW29738   6.056   3.128   5.461
 9832SOL    HW129739   6.030   3.134   5.369
 9832SOL    HW229740   5.974   3.127   5.510
 9833SOL     OW29741   6.719   3.633   3.967
 9833SOL    HW129742   6.638   3.605   4.012
 9833SOL    HW229743   6.728   3.572   3.894
 9834SOL     OW29744   5.788   2.131   5.228
 9834SOL    HW129745   5.708   2.182   5.236
 9834SOL    HW229746   5.766   2.045   5.266
 9835SOL     OW29747   6.047   3.599   4.042
 9835SOL    HW129748   6.093   3.654   4.105
 9835SOL    HW229749   6.115   3.563   3.986
 9836SOL     OW29750   5.842   3.652   4.951
 9836SOL    HW129751   5.891   3.581   4.993
 9836SOL    HW229752   5.835   3.625   4.859
 9837SOL     OW29753   6.530   3.561   4.619
 9837SOL    HW129754   6.613   3.515   4.630
 9837SOL    HW229755   6.483   3.512   4.552
 9838SOL     OW29756   5.983   2.556   4.195
 9838SOL    HW129757   5.998   2.462   4.209
 9838SOL    HW229758   5.889   2.567   4.212
 9839SOL     OW29759   6.234   1.977   3.825
 9839SOL    HW129760   6.288   1.901   3.846
 9839SOL    HW229761   6.179   1.948   3.752
 9840SOL     OW29762   6.348   2.140   5.481
 9840SOL    HW129763   6.427   2.086   5.478
 9840SOL    HW229764   6.299   2.106   5.556
 9841SOL     OW29765   6.460   3.391   4.917
 9841SOL    HW129766   6.442   3.353   4.831
 9841SOL    HW229767   6.528   3.334   4.955
 9842SOL     OW29768   6.400   3.250   4.673
 9842SOL    HW129769   6.486   3.238   4.632
 9842SOL    HW229770   6.339   3.257   4.600
 9843SOL     OW29771   6.514   2.370   4.624
 9843SOL    HW129772   6.489   2.362   4.532
 9843SOL    HW229773   6.544   2.283   4.649
 9844SOL     OW29774   6.139   1.926   4.218
 9844SOL    HW129775   6.060   1.925   4.272
 9844SOL    HW229776   6.130   2.002   4.162
 9845SOL     OW29777   6.993   2.987   3.743
 9845SOL    HW129778   0.020   2.942   3.823
 9845SOL    HW229779   6.926   3.049   3.773
 9846SOL     OW29780   5.874   1.910   3.910
 9846SOL    HW129781   5.931   1.974   3.868
 9846SOL    HW229782   5.934   1.849   3.952
 9847SOL     OW29783   6.531   2.112   4.175
 9847SOL    HW129784   6.503   2.150   4.092
 9847SOL    HW229785   6.626   2.126   4.178
 9848SOL     OW29786   6.657   2.528   5.186
 9848SOL    HW129787   6.566   2.497   5.184
 9848SOL    HW229788   6.710   2.449   5.195
 9849SOL     OW29789   6.780   3.440   4.523
 9849SOL    HW129790   6.797   3.503   4.454
 9849SOL    HW229791   6.866   3.422   4.560
 9850SOL     OW29792   6.059   3.017   4.448
 9850SOL    HW129793   5.994   2.996   4.515
 9850SOL    HW229794   6.014   3.005   4.365
 9851SOL     OW29795   6.835   3.658   4.332
 9851SOL    HW129796   6.860   3.720   4.264
 9851SOL    HW229797   6.768   3.704   4.383
 9852SOL     OW29798   6.609   2.393   3.746
 9852SOL    HW129799   6.566   2.478   3.732
 9852SOL    HW229800   6.671   2.409   3.816
 9853SOL     OW29801   5.671   2.416   5.116
 9853SOL    HW129802   5.763   2.416   5.090
 9853SOL    HW229803   5.665   2.485   5.182
 9854SOL     OW29804   6.144   2.091   4.898
 9854SOL    HW129805   6.185   2.019   4.946
 9854SOL    HW229806   6.052   2.088   4.925
 9855SOL     OW29807   6.448   2.313   4.363
 9855SOL    HW129808   6.410   2.375   4.301
 9855SOL    HW229809   6.472   2.237   4.310
 9856SOL     OW29810   6.608   1.912   4.465
 9856SOL    HW129811   6.544   1.908   4.395
 9856SOL    HW229812   6.583   1.840   4.524
 9857SOL     OW29813   6.075   3.286   3.879
 9857SOL    HW129814   5.997   3.256   3.926
 9857SOL    HW229815   6.078   3.232   3.800
 9858SOL     OW29816   6.112   2.123   4.033
 9858SOL    HW129817   6.163   2.080   3.964
 9858SOL    HW229818   6.084   2.206   3.993
 9859SOL     OW29819   6.624   3.212   5.048
 9859SOL    HW129820   6.546   3.183   5.097
 9859SOL    HW229821   6.697   3.167   5.091
 9860SOL     OW29822   6.734   3.088   4.820
 9860SOL    HW129823   6.673   3.118   4.887
 9860SOL    HW229824   6.693   3.115   4.737
 9861SOL     OW29825   6.498   1.957   5.107
 9861SOL    HW129826   6.522   1.936   5.017
 9861SOL    HW229827   6.578   1.994   5.145
 9862SOL     OW29828   6.572   2.977   5.456
 9862SOL    HW129829   6.481   2.996   5.478
 9862SOL    HW229830   6.567   2.902   5.398
 9863SOL     OW29831   6.296   2.925   4.095
 9863SOL    HW129832   6.282   2.903   4.187
 9863SOL    HW229833   6.372   2.871   4.069
 9864SOL     OW29834   6.009   2.682   4.977
 9864SOL    HW129835   6.077   2.691   5.044
 9864SOL    HW229836   5.974   2.594   4.990
 9865SOL     OW29837   6.853   2.233   5.020
 9865SOL    HW129838   6.904   2.312   5.038
 9865SOL    HW229839   6.767   2.266   4.994
 9866SOL     OW29840   5.662   3.436   5.082
 9866SOL    HW129841   5.635   3.508   5.026
 9866SOL    HW229842   5.758   3.433   5.074
 9867SOL     OW29843   5.918   2.984   4.213
 9867SOL    HW129844   5.922   3.057   4.152
 9867SOL    HW229845   5.918   2.906   4.158
 9868SOL     OW29846   6.131   2.392   4.584
 9868SOL    HW129847   6.145   2.450   4.509
 9868SOL    HW229848   6.199   2.416   4.646
 9869SOL     OW29849   6.826   3.229   4.148
 9869SOL    HW129850   6.873   3.306   4.181
 9869SOL    HW229851   6.734   3.249   4.165
 9870SOL     OW29852   6.854   3.344   4.864
 9870SOL    HW129853   6.930   3.336   4.921
 9870SOL    HW229854   6.818   3.255   4.859
 9871SOL     OW29855   5.931   3.393   5.033
 9871SOL    HW129856   5.921   3.346   4.950
 9871SOL    HW229857   6.026   3.404   5.042
 9872SOL     OW29858   6.005   2.608   5.328
 9872SOL    HW129859   6.069   2.650   5.271
 9872SOL    HW229860   6.041   2.521   5.346
 9873SOL     OW29861   6.576   1.986   5.481
 9873SOL    HW129862   6.628   2.062   5.457
 9873SOL    HW229863   6.631   1.911   5.459
 9874SOL     OW29864   6.083   1.899   5.474
 9874SOL    HW129865   6.034   1.846   5.411
 9874SOL    HW229866   6.027   1.974   5.490
 9875SOL     OW29867   6.171   2.737   4.757
 9875SOL    HW129868   6.206   2.826   4.760
 9875SOL    HW229869   6.114   2.731   4.833
 9876SOL     OW29870   6.949   2.710   4.747
 9876SOL    HW129871   6.860   2.692   4.719
 9876SOL    HW229872   6.983   2.625   4.776
 9877SOL     OW29873   6.766   2.397   3.970
 9877SOL    HW129874   6.782   2.318   4.023
 9877SOL    HW229875   6.731   2.460   4.032
 9878SOL     OW29876   5.881   2.058   4.971
 9878SOL    HW129877   5.845   2.090   5.054
 9878SOL    HW229878   5.864   1.964   4.971
 9879SOL     OW29879   5.633   3.174   4.996
 9879SOL    HW129880   5.664   3.118   5.067
 9879SOL    HW229881   5.638   3.263   5.033
 9880SOL     OW29882   6.305   2.491   4.775
 9880SOL    HW129883   6.381   2.479   4.719
 9880SOL    HW229884   6.275   2.580   4.757
 9881SOL     OW29885   5.897   1.923   4.349
 9881SOL    HW129886   5.872   2.013   4.369
 9881SOL    HW229887   5.904   1.880   4.434
 9882SOL     OW29888   0.208   2.323   4.052
 9882SOL    HW129889   0.166   2.236   4.055
 9882SOL    HW229890   0.189   2.361   4.138
 9883SOL     OW29891   6.612   2.620   4.682
 9883SOL    HW129892   6.603   2.635   4.776
 9883SOL    HW229893   6.588   2.528   4.670
 9884SOL     OW29894   6.553   3.433   5.433
 9884SOL    HW129895   6.541   3.471   5.346
 9884SOL    HW229896   6.603   3.353   5.418
 9885SOL     OW29897   5.937   2.779   5.534
 9885SOL    HW129898   6.017   2.798   5.584
 9885SOL    HW229899   5.964   2.717   5.467
 9886SOL     OW29900   6.897   2.676   3.748
 9886SOL    HW129901   6.962   2.619   3.789
 9886SOL    HW229902   6.939   2.705   3.667
 9887SOL     OW29903   6.647   3.197   4.580
 9887SOL    HW129904   6.655   3.127   4.515
 9887SOL    HW229905   6.698   3.269   4.543
 9888SOL     OW29906   5.895   2.672   4.669
 9888SOL    HW129907   5.988   2.691   4.663
 9888SOL    HW229908   5.891   2.581   4.700
 9889SOL     OW29909   5.910   2.394   4.737
 9889SOL    HW129910   5.875   2.306   4.725
 9889SOL    HW229911   5.988   2.397   4.680
 9890SOL     OW29912   6.696   2.222   5.407
 9890SOL    HW129913   6.651   2.280   5.469
 9890SOL    HW229914   6.787   2.252   5.407
 9891SOL     OW29915   6.739   2.052   5.194
 9891SOL    HW129916   6.722   2.112   5.267
 9891SOL    HW229917   6.784   2.106   5.129
 9892SOL     OW29918   5.593   3.178   3.918
 9892SOL    HW129919   5.506   3.194   3.882
 9892SOL    HW229920   5.588   3.089   3.952
 9893SOL     OW29921   5.675   3.642   4.666
 9893SOL    HW129922   5.646   3.565   4.618
 9893SOL    HW229923   5.765   3.657   4.634
 9894SOL     OW29924   6.076   3.436   4.627
 9894SOL    HW129925   6.145   3.498   4.651
 9894SOL    HW229926   6.119   3.373   4.569
 9895SOL     OW29927   6.562   2.646   4.948
 9895SOL    HW129928   6.623   2.625   5.018
 9895SOL    HW229929   6.479   2.608   4.976
 9896SOL     OW29930   5.623   2.414   4.841
 9896SOL    HW129931   5.705   2.408   4.791
 9896SOL    HW229932   5.651   2.413   4.932
 9897SOL     OW29933   5.776   2.386   5.457
 9897SOL    HW129934   5.829   2.340   5.392
 9897SOL    HW229935   5.741   2.462   5.411
 9898SOL     OW29936   6.403   2.431   4.092
 9898SOL    HW129937   6.408   2.357   4.031
 9898SOL    HW229938   6.328   2.482   4.061
 9899SOL     OW29939   5.822   3.410   5.446
 9899SOL    HW129940   5.801   3.473   5.514
 9899SOL    HW229941   5.831   3.327   5.493
 9900SOL     OW29942   6.305   2.308   4.976
 9900SOL    HW129943   6.246   2.236   4.954
 9900SOL    HW229944   6.294   2.371   4.905
 9901SOL     OW29945   6.496   3.547   5.189
 9901SOL    HW129946   6.482   3.503   5.106
 9901SOL    HW229947   6.488   3.640   5.169
 9902SOL     OW29948   6.043   2.353   3.901
 9902SOL    HW129949   6.104   2.422   3.927
 9902SOL    HW229950   5.958   2.396   3.894
 9903SOL     OW29951   5.724   3.005   5.198
 9903SOL    HW129952   5.727   2.960   5.282
 9903SOL    HW229953   5.743   2.938   5.133
 9904SOL     OW29954   6.891   2.902   4.949
 9904SOL    HW129955   6.917   2.837   4.884
 9904SOL    HW229956   6.835   2.963   4.900
 9905SOL     OW29957   6.887   2.729   4.034
 9905SOL    HW129958   6.823   2.691   4.095
 9905SOL    HW229959   6.853   2.707   3.947
 9906SOL     OW29960   6.850   3.616   4.835
 9906SOL    HW129961   6.928   3.623   4.779
 9906SOL    HW229962   6.839   3.522   4.849
 9907SOL     OW29963   5.675   3.126   4.733
 9907SOL    HW129964   5.657   3.142   4.826
 9907SOL    HW229965   5.603   3.071   4.704
 9908SOL     OW29966   6.266   3.534   5.469
 9908SOL    HW129967   6.210   3.610   5.453
 9908SOL    HW229968   6.341   3.548   5.411
 9909SOL     OW29969   6.977   3.448   4.220
 9909SOL    HW129970   0.057   3.489   4.189
 9909SOL    HW229971   6.921   3.521   4.247
 9910SOL     OW29972   5.727   3.658   5.566
 9910SOL    HW129973   5.677   3.591   5.613
 9910SOL    HW229974   5.774   3.705   5.636
 9911SOL     OW29975   6.865   2.781   4.387
 9911SOL    HW129976   6.949   2.743   4.413
 9911SOL    HW229977   6.889   2.857   4.335
 9912SOL     OW29978   6.379   3.136   5.145
 9912SOL    HW129979   6.352   3.181   5.226
 9912SOL    HW229980   6.308   3.153   5.083
 9913SOL     OW29981   6.252   3.492   3.882
 9913SOL    HW129982   6.266   3.505   3.788
 9913SOL    HW229983   6.200   3.412   3.887
 9914SOL     OW29984   5.841   2.174   4.438
 9914SOL    HW129985   5.755   2.209   4.415
 9914SOL    HW229986   5.841   2.170   4.533
 9915SOL     OW29987   6.749   3.460   3.765
 9915SOL    HW129988   6.771   3.369   3.743
 9915SOL    HW229989   6.688   3.487   3.696
 9916SOL     OW29990   6.412   2.868   5.102
 9916SOL    HW129991   6.452   2.864   5.015
 9916SOL    HW229992   6.403   2.961   5.120
 9917SOL     OW29993   6.502   2.773   4.010
 9917SOL    HW129994   6.566   2.805   3.947
 9917SOL    HW229995   6.549   2.706   4.060
 9918SOL     OW29996   5.952   3.167   5.216
 9918SOL    HW129997   5.940   3.243   5.160
 9918SOL    HW229998   5.874   3.113   5.201
 9919SOL     OW29999   6.646   2.970   4.431
 9919SOL    HW130000   6.574   2.921   4.470
 9919SOL    HW230001   6.710   2.904   4.406
 9920SOL     OW30002   6.609   2.104   4.688
 9920SOL    HW130003   6.605   2.056   4.605
 9920SOL    HW230004   6.605   2.035   4.755
 9921SOL     OW30005   6.192   3.350   4.202
 9921SOL    HW130006   6.244   3.299   4.139
 9921SOL    HW230007   6.116   3.380   4.152
 9922SOL     OW30008   5.848   3.203   4.016
 9922SOL    HW130009   5.755   3.199   3.992
 9922SOL    HW230010   5.848   3.244   4.103
 9923SOL     OW30011   5.701   2.896   5.450
 9923SOL    HW130012   5.624   2.869   5.500
 9923SOL    HW230013   5.775   2.853   5.492
 9924SOL     OW30014   6.261   2.058   5.223
 9924SOL    HW130015   6.345   2.036   5.183
 9924SOL    HW230016   6.285   2.090   5.310
 9925SOL     OW30017   5.667   2.189   3.754
 9925SOL    HW130018   5.582   2.169   3.715
 9925SOL    HW230019   5.697   2.267   3.709
 9926SOL     OW30020   5.645   2.015   4.023
 9926SOL    HW130021   5.634   2.094   3.970
 9926SOL    HW230022   5.731   1.981   3.997
 9927SOL     OW30023   6.210   2.690   5.160
 9927SOL    HW130024   6.266   2.766   5.146
 9927SOL    HW230025   6.270   2.616   5.167
 9928SOL     OW30026   6.308   2.419   5.421
 9928SOL    HW130027   6.350   2.476   5.485
 9928SOL    HW230028   6.321   2.330   5.455
 9929SOL     OW30029   6.990   3.123   5.370
 9929SOL    HW130030   6.999   3.065   5.445
 9929SOL    HW230031   0.070   3.111   5.320
 9930SOL     OW30032   5.955   3.603   5.291
 9930SOL    HW130033   5.872   3.649   5.276
 9930SOL    HW230034   5.929   3.520   5.331
 9931SOL     OW30035   6.811   2.180   4.157
 9931SOL    HW130036   6.885   2.132   4.120
 9931SOL    HW230037   6.847   2.225   4.234
 9932SOL     OW30038   6.171   2.594   4.398
 9932SOL    HW130039   6.212   2.679   4.384
 9932SOL    HW230040   6.107   2.587   4.327
 9933SOL     OW30041   6.422   3.232   3.756
 9933SOL    HW130042   6.411   3.253   3.849
 9933SOL    HW230043   6.456   3.312   3.717
 9934SOL     OW30044   6.250   3.643   4.658
 9934SOL    HW130045   6.231   3.736   4.643
 9934SOL    HW230046   6.345   3.638   4.659
 9935SOL     OW30047   6.455   2.834   4.578
 9935SOL    HW130048   6.505   2.761   4.613
 9935SOL    HW230049   6.415   2.876   4.654
 9936SOL     OW30050   6.675   2.842   3.813
 9936SOL    HW130051   6.646   2.898   3.741
 9936SOL    HW230052   6.745   2.788   3.775
 9937SOL     OW30053   5.812   3.160   5.576
 9937SOL    HW130054   5.752   3.093   5.543
 9937SOL    HW230055   5.785   3.173   5.667
 9938SOL     OW30056   5.677   3.089   4.389
 9938SOL    HW130057   5.691   3.046   4.473
 9938SOL    HW230058   5.744   3.051   4.331
 9939SOL     OW30059   6.264   3.275   5.348
 9939SOL    HW130060   6.190   3.229   5.389
 9939SOL    HW230061   6.267   3.359   5.393
 9940SOL     OW30062   6.012   2.294   4.248
 9940SOL    HW130063   6.045   2.223   4.192
 9940SOL    HW230064   5.963   2.250   4.317
 9941SOL     OW30065   5.924   2.423   5.017
 9941SOL    HW130066   5.976   2.364   5.071
 9941SOL    HW230067   5.939   2.394   4.927
 9942SOL     OW30068   6.414   3.443   4.400
 9942SOL    HW130069   6.388   3.509   4.336
 9942SOL    HW230070   6.340   3.383   4.405
 9943SOL     OW30071   6.990   2.079   4.839
 9943SOL    HW130072   6.990   1.990   4.874
 9943SOL    HW230073   6.944   2.130   4.906
 9944SOL     OW30074   6.600   1.876   4.856
 9944SOL    HW130075   6.551   1.807   4.813
 9944SOL    HW230076   6.690   1.843   4.861
 9945SOL     OW30077   6.362   3.196   4.045
 9945SOL    HW130078   6.336   3.104   4.053
 9945SOL    HW230079   6.443   3.202   4.095
 9946SOL     OW30080   6.205   3.420   5.010
 9946SOL    HW130081   6.204   3.502   5.059
 9946SOL    HW230082   6.294   3.414   4.975
 9947SOL     OW30083   6.907   1.950   3.866
 9947SOL    HW130084   6.937   1.899   3.791
 9947SOL    HW230085   6.835   1.899   3.903
 9948SOL     OW30086   5.627   2.925   4.032
 9948SOL    HW130087   5.721   2.918   4.014
 9948SOL    HW230088   5.600   2.836   4.054
 9949SOL     OW30089   6.472   3.529   4.062
 9949SOL    HW130090   6.397   3.512   4.004
 9949SOL    HW230091   6.441   3.599   4.120
 9950SOL     OW30092   5.806   2.485   5.718
 9950SOL    HW130093   5.717   2.480   5.754
 9950SOL    HW230094   5.795   2.463   5.626
 9951SOL     OW30095   5.807   2.154   6.581
 9951SOL    HW130096   5.840   2.113   6.661
 9951SOL    HW230097   5.720   2.116   6.569
 9952SOL     OW30098   5.582   2.248   6.226
 9952SOL    HW130099   5.501   2.276   6.269
 9952SOL    HW230100   5.557   2.170   6.176
 9953SOL     OW30101   6.147   3.144   6.756
 9953SOL    HW130102   6.064   3.171   6.715
 9953SOL    HW230103   6.171   3.219   6.810
 9954SOL     OW30104   0.065   3.405   6.347
 9954SOL    HW130105   0.099   3.315   6.345
 9954SOL    HW230106   0.037   3.422   6.257
 9955SOL     OW30107   6.689   2.579   6.273
 9955SOL    HW130108   6.753   2.651   6.267
 9955SOL    HW230109   6.657   2.584   6.363
 9956SOL     OW30110   6.340   2.998   6.633
 9956SOL    HW130111   6.270   3.029   6.691
 9956SOL    HW230112   6.372   3.077   6.589
 9957SOL     OW30113   6.271   2.857   6.229
 9957SOL    HW130114   6.337   2.850   6.298
 9957SOL    HW230115   6.203   2.913   6.267
 9958SOL     OW30116   5.919   3.270   6.650
 9958SOL    HW130117   5.839   3.240   6.608
 9958SOL    HW230118   5.959   3.330   6.587
 9959SOL     OW30119   5.805   3.579   6.053
 9959SOL    HW130120   5.826   3.653   6.110
 9959SOL    HW230121   5.880   3.571   5.995
 9960SOL     OW30122   5.819   3.308   6.122
 9960SOL    HW130123   5.799   3.401   6.125
 9960SOL    HW230124   5.762   3.270   6.190
 9961SOL     OW30125   5.853   2.955   6.477
 9961SOL    HW130126   5.850   2.867   6.517
 9961SOL    HW230127   5.799   3.009   6.534
 9962SOL     OW30128   6.172   3.698   6.941
 9962SOL    HW130129   6.102   3.658   6.993
 9962SOL    HW230130   6.207   3.767   6.998
 9963SOL     OW30131   6.163   2.847   5.727
 9963SOL    HW130132   6.211   2.892   5.658
 9963SOL    HW230133   6.202   2.879   5.809
 9964SOL     OW30134   0.241   2.053   0.085
 9964SOL    HW130135   0.181   2.128   0.084
 9964SOL    HW230136   0.189   1.980   0.117
 9965SOL     OW30137   5.705   2.519   6.148
 9965SOL    HW130138   5.674   2.431   6.169
 9965SOL    HW230139   5.697   2.568   6.230
 9966SOL     OW30140   5.626   3.451   5.705
 9966SOL    HW130141   5.608   3.359   5.725
 9966SOL    HW230142   5.600   3.499   5.783
 9967SOL     OW30143   6.204   3.254   6.320
 9967SOL    HW130144   6.159   3.170   6.330
 9967SOL    HW230145   6.186   3.280   6.230
 9968SOL     OW30146   6.821   3.051   0.027
 9968SOL    HW130147   6.869   3.012   6.954
 9968SOL    HW230148   6.888   3.098   0.077
 9969SOL     OW30149   6.407   1.870   6.103
 9969SOL    HW130150   6.446   1.953   6.077
 9969SOL    HW230151   6.313   1.887   6.107
 9970SOL     OW30152   5.777   2.840   6.852
 9970SOL    HW130153   5.855   2.790   6.830
 9970SOL    HW230154   5.704   2.786   6.819
 9971SOL     OW30155   6.180   2.577   5.858
 9971SOL    HW130156   6.182   2.662   5.814
 9971SOL    HW230157   6.114   2.587   5.927
 9972SOL     OW30158   6.872   2.187   6.476
 9972SOL    HW130159   6.779   2.172   6.492
 9972SOL    HW230160   6.915   2.151   6.553
 9973SOL     OW30161   6.410   2.446   0.051
 9973SOL    HW130162   6.351   2.501   0.102
 9973SOL    HW230163   6.354   2.405   6.985
 9974SOL     OW30164   6.562   2.240   6.799
 9974SOL    HW130165   6.478   2.276   6.826
 9974SOL    HW230166   6.544   2.190   6.720
 9975SOL     OW30167   6.637   2.564   6.007
 9975SOL    HW130168   6.652   2.564   6.102
 9975SOL    HW230169   6.554   2.517   5.996
 9976SOL     OW30170   5.676   2.683   6.365
 9976SOL    HW130171   5.756   2.678   6.417
 9976SOL    HW230172   5.630   2.760   6.400
 9977SOL     OW30173   5.737   3.714   0.141
 9977SOL    HW130174   5.692   3.639   0.179
 9977SOL    HW230175   5.692   3.731   0.059
 9978SOL     OW30176   6.483   2.213   5.781
 9978SOL    HW130177   6.525   2.275   5.721
 9978SOL    HW230178   6.482   2.130   5.733
 9979SOL     OW30179   6.936   2.994   6.108
 9979SOL    HW130180   6.988   2.977   6.029
 9979SOL    HW230181   6.885   3.072   6.086
 9980SOL     OW30182   6.141   2.038   6.487
 9980SOL    HW130183   6.145   2.067   6.578
 9980SOL    HW230184   6.138   2.119   6.436
 9981SOL     OW30185   6.574   3.314   6.060
 9981SOL    HW130186   6.546   3.387   6.004
 9981SOL    HW230187   6.539   3.336   6.146
 9982SOL     OW30188   5.939   3.677   6.453
 9982SOL    HW130189   5.979   3.591   6.465
 9982SOL    HW230190   6.008   3.739   6.479
 9983SOL     OW30191   5.898   2.823   5.842
 9983SOL    HW130192   5.981   2.842   5.798
 9983SOL    HW230193   5.870   2.739   5.805
 9984SOL     OW30194   6.719   3.633   5.830
 9984SOL    HW130195   6.639   3.606   5.873
 9984SOL    HW230196   6.728   3.572   5.756
 9985SOL     OW30197   6.046   3.600   5.903
 9985SOL    HW130198   6.093   3.654   5.968
 9985SOL    HW230199   6.115   3.562   5.849
 9986SOL     OW30200   5.854   3.662   6.821
 9986SOL    HW130201   5.908   3.614   6.883
 9986SOL    HW230202   5.806   3.595   6.773
 9987SOL     OW30203   6.525   3.563   6.477
 9987SOL    HW130204   6.603   3.515   6.501
 9987SOL    HW230205   6.484   3.511   6.408
 9988SOL     OW30206   5.983   2.555   6.058
 9988SOL    HW130207   5.999   2.462   6.072
 9988SOL    HW230208   5.890   2.567   6.075
 9989SOL     OW30209   6.234   1.978   5.686
 9989SOL    HW130210   6.286   1.901   5.709
 9989SOL    HW230211   6.179   1.948   5.614
 9990SOL     OW30212   6.456   3.382   6.772
 9990SOL    HW130213   6.441   3.344   6.685
 9990SOL    HW230214   6.473   3.307   6.828
 9991SOL     OW30215   6.403   3.249   6.530
 9991SOL    HW130216   6.488   3.237   6.487
 9991SOL    HW230217   6.341   3.256   6.459
 9992SOL     OW30218   6.516   2.371   6.486
 9992SOL    HW130219   6.490   2.363   6.394
 9992SOL    HW230220   6.548   2.285   6.510
 9993SOL     OW30221   6.140   1.925   6.080
 9993SOL    HW130222   6.061   1.925   6.134
 9993SOL    HW230223   6.130   2.002   6.024
 9994SOL     OW30224   6.994   2.987   5.605
 9994SOL    HW130225   0.020   2.942   5.685
 9994SOL    HW230226   6.926   3.048   5.634
 9995SOL     OW30227   5.874   1.910   5.772
 9995SOL    HW130228   5.932   1.976   5.732
 9995SOL    HW230229   5.933   1.849   5.815
 9996SOL     OW30230   6.531   2.112   6.037
 9996SOL    HW130231   6.503   2.150   5.954
 9996SOL    HW230232   6.625   2.126   6.040
 9997SOL     OW30233   6.783   3.434   6.378
 9997SOL    HW130234   6.790   3.502   6.311
 9997SOL    HW230235   6.872   3.422   6.410
 9998SOL     OW30236   6.060   3.016   6.311
 9998SOL    HW130237   5.994   2.997   6.378
 9998SOL    HW230238   6.014   3.004   6.228
 9999SOL     OW30239   6.833   3.657   6.193
 9999SOL    HW130240   6.856   3.719   6.124
 9999SOL    HW230241   6.766   3.702   6.244
10000SOL     OW30242   6.609   2.393   5.607
10000SOL    HW130243   6.566   2.478   5.594
10000SOL    HW230244   6.671   2.409   5.678
10001SOL     OW30245   6.151   2.083   6.763
10001SOL    HW130246   6.185   2.002   6.800
10001SOL    HW230247   6.058   2.083   6.787
10002SOL     OW30248   6.449   2.315   6.225
10002SOL    HW130249   6.409   2.376   6.163
10002SOL    HW230250   6.472   2.238   6.172
10003SOL     OW30251   6.609   1.909   6.322
10003SOL    HW130252   6.543   1.905   6.253
10003SOL    HW230253   6.583   1.841   6.384
10004SOL     OW30254   6.075   3.286   5.741
10004SOL    HW130255   5.997   3.256   5.789
10004SOL    HW230256   6.076   3.232   5.662
10005SOL     OW30257   6.112   2.124   5.894
10005SOL    HW130258   6.163   2.080   5.826
10005SOL    HW230259   6.084   2.206   5.855
10006SOL     OW30260   0.223   3.436   0.234
10006SOL    HW130261   0.253   3.493   0.163
10006SOL    HW230262   0.300   3.385   0.258
10007SOL     OW30263   6.725   3.081   6.686
10007SOL    HW130264   6.644   3.067   6.735
10007SOL    HW230265   6.695   3.114   6.601
10008SOL     OW30266   6.296   2.925   5.957
10008SOL    HW130267   6.282   2.904   6.049
10008SOL    HW230268   6.372   2.872   5.931
10009SOL     OW30269   6.012   2.678   6.849
10009SOL    HW130270   6.057   2.703   6.930
10009SOL    HW230271   5.978   2.591   6.866
10010SOL     OW30272   6.823   2.271   6.869
10010SOL    HW130273   6.802   2.353   6.914
10010SOL    HW230274   6.743   2.248   6.822
10011SOL     OW30275   5.681   3.430   6.867
10011SOL    HW130276   5.631   3.468   6.939
10011SOL    HW230277   5.768   3.413   6.904
10012SOL     OW30278   5.919   2.984   6.075
10012SOL    HW130279   5.921   3.057   6.014
10012SOL    HW230280   5.918   2.906   6.019
10013SOL     OW30281   6.132   2.392   6.444
10013SOL    HW130282   6.145   2.450   6.369
10013SOL    HW230283   6.201   2.417   6.506
10014SOL     OW30284   6.827   3.229   6.010
10014SOL    HW130285   6.873   3.306   6.044
10014SOL    HW230286   6.734   3.248   6.027
10015SOL     OW30287   6.818   3.340   6.766
10015SOL    HW130288   6.910   3.325   6.789
10015SOL    HW230289   6.785   3.253   6.744
10016SOL     OW30290   5.944   3.352   6.905
10016SOL    HW130291   5.925   3.315   6.819
10016SOL    HW230292   6.033   3.387   6.897
10017SOL     OW30293   6.172   2.735   6.624
10017SOL    HW130294   6.203   2.825   6.623
10017SOL    HW230295   6.116   2.730   6.702
10018SOL     OW30296   6.949   2.705   6.600
10018SOL    HW130297   6.859   2.685   6.571
10018SOL    HW230298   6.982   2.623   6.635
10019SOL     OW30299   6.766   2.397   5.832
10019SOL    HW130300   6.782   2.318   5.884
10019SOL    HW230301   6.731   2.460   5.894
10020SOL     OW30302   5.888   2.065   6.834
10020SOL    HW130303   5.848   2.086   6.918
10020SOL    HW230304   5.877   1.970   6.825
10021SOL     OW30305   5.608   3.166   6.868
10021SOL    HW130306   5.664   3.124   6.934
10021SOL    HW230307   5.637   3.257   6.866
10022SOL     OW30308   6.304   2.488   6.637
10022SOL    HW130309   6.382   2.477   6.582
10022SOL    HW230310   6.277   2.579   6.621
10023SOL     OW30311   5.897   1.924   6.209
10023SOL    HW130312   5.871   2.013   6.230
10023SOL    HW230313   5.904   1.880   6.294
10024SOL     OW30314   0.209   2.322   5.914
10024SOL    HW130315   0.167   2.236   5.916
10024SOL    HW230316   0.189   2.360   6.000
10025SOL     OW30317   6.615   2.619   6.550
10025SOL    HW130318   6.603   2.634   6.644
10025SOL    HW230319   6.589   2.528   6.537
10026SOL     OW30320   6.897   2.676   5.611
10026SOL    HW130321   6.962   2.618   5.651
10026SOL    HW230322   6.938   2.705   5.530
10027SOL     OW30323   6.655   3.194   6.444
10027SOL    HW130324   6.659   3.126   6.377
10027SOL    HW230325   6.701   3.269   6.405
10028SOL     OW30326   5.897   2.671   6.532
10028SOL    HW130327   5.990   2.693   6.526
10028SOL    HW230328   5.896   2.580   6.562
10029SOL     OW30329   5.920   2.395   6.606
10029SOL    HW130330   5.881   2.309   6.590
10029SOL    HW230331   5.995   2.398   6.547
10030SOL     OW30332   6.758   2.089   0.063
10030SOL    HW130333   6.788   2.141   0.137
10030SOL    HW230334   6.773   2.145   6.987
10031SOL     OW30335   5.594   3.177   5.778
10031SOL    HW130336   5.507   3.194   5.743
10031SOL    HW230337   5.589   3.088   5.814
10032SOL     OW30338   5.672   3.651   6.523
10032SOL    HW130339   5.645   3.571   6.479
10032SOL    HW230340   5.765   3.661   6.501
10033SOL     OW30341   6.074   3.437   6.489
10033SOL    HW130342   6.143   3.499   6.514
10033SOL    HW230343   6.118   3.373   6.433
10034SOL     OW30344   6.564   2.651   6.817
10034SOL    HW130345   6.630   2.636   6.885
10034SOL    HW230346   6.481   2.626   6.859
10035SOL     OW30347   5.640   2.417   6.721
10035SOL    HW130348   5.686   2.386   6.643
10035SOL    HW230349   5.709   2.448   6.779
10036SOL     OW30350   6.403   2.432   5.953
10036SOL    HW130351   6.408   2.358   5.893
10036SOL    HW230352   6.328   2.483   5.923
10037SOL     OW30353   6.282   2.319   6.847
10037SOL    HW130354   6.235   2.240   6.819
10037SOL    HW230355   6.278   2.377   6.771
10038SOL     OW30356   6.448   3.524   0.013
10038SOL    HW130357   6.459   3.500   6.921
10038SOL    HW230358   6.521   3.582   0.032
10039SOL     OW30359   6.043   2.353   5.762
10039SOL    HW130360   6.103   2.423   5.789
10039SOL    HW230361   5.958   2.396   5.756
10040SOL     OW30362   5.742   3.009   0.061
10040SOL    HW130363   5.800   2.968   0.125
10040SOL    HW230364   5.750   2.954   6.983
10041SOL     OW30365   6.886   2.881   6.807
10041SOL    HW130366   6.916   2.829   6.733
10041SOL    HW230367   6.835   2.952   6.767
10042SOL     OW30368   6.887   2.728   5.896
10042SOL    HW130369   6.822   2.690   5.956
10042SOL    HW230370   6.854   2.707   5.809
10043SOL     OW30371   6.846   3.609   6.690
10043SOL    HW130372   6.929   3.610   6.642
10043SOL    HW230373   6.836   3.518   6.718
10044SOL     OW30374   5.671   3.122   6.600
10044SOL    HW130375   5.645   3.132   6.692
10044SOL    HW230376   5.603   3.066   6.562
10045SOL     OW30377   6.977   3.448   6.083
10045SOL    HW130378   0.057   3.490   6.051
10045SOL    HW230379   6.921   3.521   6.110
10046SOL     OW30380   6.866   2.781   6.251
10046SOL    HW130381   6.951   2.741   6.272
10046SOL    HW230382   6.889   2.858   6.198
10047SOL     OW30383   6.252   3.492   5.744
10047SOL    HW130384   6.266   3.505   5.650
10047SOL    HW230385   6.199   3.412   5.749
10048SOL     OW30386   5.840   2.175   6.299
10048SOL    HW130387   5.754   2.208   6.276
10048SOL    HW230388   5.840   2.171   6.395
10049SOL     OW30389   6.750   3.460   5.627
10049SOL    HW130390   6.769   3.368   5.607
10049SOL    HW230391   6.689   3.487   5.558
10050SOL     OW30392   6.363   2.884   6.957
10050SOL    HW130393   6.415   2.860   6.880
10050SOL    HW230394   6.411   2.956   6.998
10051SOL     OW30395   6.502   2.773   5.873
10051SOL    HW130396   6.566   2.805   5.809
10051SOL    HW230397   6.550   2.706   5.922
10052SOL     OW30398   6.646   2.970   6.293
10052SOL    HW130399   6.573   2.921   6.331
10052SOL    HW230400   6.709   2.903   6.266
10053SOL     OW30401   6.609   2.101   6.538
10053SOL    HW130402   6.603   2.055   6.455
10053SOL    HW230403   6.610   2.033   6.605
10054SOL     OW30404   6.192   3.349   6.064
10054SOL    HW130405   6.242   3.300   5.999
10054SOL    HW230406   6.114   3.378   6.016
10055SOL     OW30407   5.848   3.203   5.880
10055SOL    HW130408   5.756   3.199   5.854
10055SOL    HW230409   5.847   3.245   5.966
10056SOL     OW30410   6.265   2.039   0.096
10056SOL    HW130411   6.351   1.998   0.090
10056SOL    HW230412   6.282   2.125   0.135
10057SOL     OW30413   5.668   2.188   5.616
10057SOL    HW130414   5.581   2.170   5.581
10057SOL    HW230415   5.697   2.266   5.570
10058SOL     OW30416   5.645   2.015   5.885
10058SOL    HW130417   5.633   2.094   5.833
10058SOL    HW230418   5.731   1.981   5.859
10059SOL     OW30419   5.972   3.593   0.083
10059SOL    HW130420   5.896   3.642   0.116
10059SOL    HW230421   5.972   3.512   0.133
10060SOL     OW30422   6.811   2.180   6.019
10060SOL    HW130423   6.885   2.132   5.982
10060SOL    HW230424   6.847   2.226   6.095
10061SOL     OW30425   6.172   2.595   6.259
10061SOL    HW130426   6.212   2.680   6.246
10061SOL    HW230427   6.107   2.587   6.189
10062SOL     OW30428   6.423   3.231   5.619
10062SOL    HW130429   6.410   3.251   5.711
10062SOL    HW230430   6.455   3.313   5.581
10063SOL     OW30431   6.250   3.642   6.519
10063SOL    HW130432   6.232   3.735   6.504
10063SOL    HW230433   6.346   3.636   6.518
10064SOL     OW30434   6.456   2.833   6.439
10064SOL    HW130435   6.504   2.760   6.478
10064SOL    HW230436   6.417   2.878   6.514
10065SOL     OW30437   6.676   2.843   5.676
10065SOL    HW130438   6.646   2.899   5.604
10065SOL    HW230439   6.745   2.789   5.638
10066SOL     OW30440   5.678   3.088   6.250
10066SOL    HW130441   5.689   3.044   6.335
10066SOL    HW230442   5.746   3.050   6.195
10067SOL     OW30443   6.013   2.294   6.110
10067SOL    HW130444   6.045   2.223   6.055
10067SOL    HW230445   5.963   2.250   6.179
10068SOL     OW30446   5.900   2.415   6.879
10068SOL    HW130447   5.961   2.356   6.922
10068SOL    HW230448   5.916   2.402   6.786
10069SOL     OW30449   6.416   3.439   6.260
10069SOL    HW130450   6.387   3.506   6.199
10069SOL    HW230451   6.341   3.380   6.268
10070SOL     OW30452   6.987   2.089   6.707
10070SOL    HW130453   6.982   1.998   6.736
10070SOL    HW230454   6.931   2.137   6.769
10071SOL     OW30455   6.610   1.888   6.705
10071SOL    HW130456   6.548   1.817   6.692
10071SOL    HW230457   6.695   1.844   6.712
10072SOL     OW30458   6.362   3.196   5.905
10072SOL    HW130459   6.335   3.104   5.914
10072SOL    HW230460   6.443   3.202   5.956
10073SOL     OW30461   6.198   3.432   6.857
10073SOL    HW130462   6.198   3.525   6.880
10073SOL    HW230463   6.286   3.416   6.822
10074SOL     OW30464   6.908   1.950   5.729
10074SOL    HW130465   6.937   1.899   5.653
10074SOL    HW230466   6.836   1.899   5.766
10075SOL     OW30467   5.628   2.926   5.894
10075SOL    HW130468   5.721   2.918   5.876
10075SOL    HW230469   5.600   2.837   5.916
10076SOL     OW30470   6.472   3.530   5.923
10076SOL    HW130471   6.398   3.512   5.866
10076SOL    HW230472   6.441   3.599   5.981
10077SOL     OW30473   5.805   4.370   0.139
10077SOL    HW130474   5.715   4.350   0.163
10077SOL    HW230475   5.811   4.347   0.046
10078SOL     OW30476   5.810   4.009   0.993
10078SOL    HW130477   5.838   3.973   1.077
10078SOL    HW230478   5.721   3.976   0.981
10079SOL     OW30479   5.585   4.114   0.644
10079SOL    HW130480   5.506   4.145   0.689
10079SOL    HW230481   5.558   4.033   0.602
10080SOL     OW30482   6.155   5.023   1.188
10080SOL    HW130483   6.070   5.029   1.144
10080SOL    HW230484   6.172   5.113   1.217
10081SOL     OW30485   0.062   5.269   0.763
10081SOL    HW130486   0.094   5.179   0.765
10081SOL    HW230487   0.028   5.280   0.674
10082SOL     OW30488   6.691   4.441   0.686
10082SOL    HW130489   6.754   4.512   0.680
10082SOL    HW230490   6.657   4.446   0.776
10083SOL     OW30491   6.329   4.860   1.051
10083SOL    HW130492   6.264   4.899   1.109
10083SOL    HW230493   6.369   4.934   1.006
10084SOL     OW30494   6.463   4.484   1.827
10084SOL    HW130495   6.445   4.552   1.892
10084SOL    HW230496   6.484   4.533   1.746
10085SOL     OW30497   6.271   4.716   0.645
10085SOL    HW130498   6.338   4.711   0.713
10085SOL    HW230499   6.203   4.773   0.682
10086SOL     OW30500   6.296   4.869   1.816
10086SOL    HW130501   6.340   4.948   1.847
10086SOL    HW230502   6.215   4.901   1.776
10087SOL     OW30503   5.918   5.139   1.067
10087SOL    HW130504   5.844   5.099   1.022
10087SOL    HW230505   5.962   5.191   0.999
10088SOL     OW30506   6.038   4.115   1.475
10088SOL    HW130507   6.113   4.056   1.485
10088SOL    HW230508   5.962   4.060   1.496
10089SOL     OW30509   5.801   5.449   0.471
10089SOL    HW130510   5.824   5.524   0.525
10089SOL    HW230511   5.883   5.423   0.430
10090SOL     OW30512   6.726   5.074   1.706
10090SOL    HW130513   6.811   5.036   1.684
10090SOL    HW230514   6.667   4.999   1.714
10091SOL     OW30515   5.796   5.171   0.528
10091SOL    HW130516   5.783   5.265   0.542
10091SOL    HW230517   5.750   5.129   0.600
10092SOL     OW30518   5.852   4.816   0.889
10092SOL    HW130519   5.848   4.727   0.926
10092SOL    HW230520   5.794   4.868   0.945
10093SOL     OW30521   6.182   5.521   1.422
10093SOL    HW130522   6.103   5.500   1.473
10093SOL    HW230523   6.208   5.608   1.453
10094SOL     OW30524   6.167   4.688   0.146
10094SOL    HW130525   6.225   4.710   0.073
10094SOL    HW230526   6.203   4.737   0.221
10095SOL     OW30527   5.707   4.373   0.558
10095SOL    HW130528   5.676   4.286   0.583
10095SOL    HW230529   5.699   4.426   0.638
10096SOL     OW30530   5.593   5.318   0.133
10096SOL    HW130531   5.528   5.248   0.122
10096SOL    HW230532   5.578   5.351   0.222
10097SOL     OW30533   5.711   4.469   1.584
10097SOL    HW130534   5.800   4.502   1.586
10097SOL    HW230535   5.656   4.548   1.584
10098SOL     OW30536   6.202   5.113   0.740
10098SOL    HW130537   6.158   5.029   0.748
10098SOL    HW230538   6.191   5.137   0.648
10099SOL     OW30539   6.830   4.943   1.429
10099SOL    HW130540   6.867   4.875   1.373
10099SOL    HW230541   6.894   4.952   1.500
10100SOL     OW30542   6.407   3.735   0.526
10100SOL    HW130543   6.447   3.817   0.498
10100SOL    HW230544   6.313   3.753   0.527
10101SOL     OW30545   5.773   4.684   1.282
10101SOL    HW130546   5.859   4.645   1.267
10101SOL    HW230547   5.716   4.639   1.219
10102SOL     OW30548   6.792   5.541   1.619
10102SOL    HW130549   6.768   5.601   1.549
10102SOL    HW230550   6.784   5.454   1.579
10103SOL     OW30551   5.930   3.973   1.837
10103SOL    HW130552   5.969   4.058   1.858
10103SOL    HW230553   5.837   3.984   1.853
10104SOL     OW30554   6.188   4.436   0.267
10104SOL    HW130555   6.192   4.524   0.229
10104SOL    HW230556   6.125   4.445   0.339
10105SOL     OW30557   6.870   4.046   0.893
10105SOL    HW130558   6.777   4.034   0.913
10105SOL    HW230559   6.916   4.011   0.969
10106SOL     OW30560   6.387   4.340   1.447
10106SOL    HW130561   6.356   4.314   1.535
10106SOL    HW230562   6.350   4.273   1.389
10107SOL     OW30563   6.942   4.192   1.683
10107SOL    HW130564   6.923   4.279   1.718
10107SOL    HW230565   0.037   4.189   1.675
10108SOL     OW30566   6.542   4.610   1.588
10108SOL    HW130567   6.595   4.541   1.549
10108SOL    HW230568   6.494   4.647   1.514
10109SOL     OW30569   6.586   4.138   1.233
10109SOL    HW130570   6.495   4.150   1.259
10109SOL    HW230571   6.580   4.096   1.146
10110SOL     OW30572   6.641   4.426   0.421
10110SOL    HW130573   6.659   4.430   0.515
10110SOL    HW230574   6.557   4.382   0.414
10111SOL     OW30575   5.676   4.541   0.775
10111SOL    HW130576   5.756   4.536   0.828
10111SOL    HW230577   5.629   4.617   0.810
10112SOL     OW30578   5.710   5.598   1.584
10112SOL    HW130579   5.714   5.576   1.677
10112SOL    HW230580   5.627   5.561   1.555
10113SOL     OW30581   6.463   4.076   0.213
10113SOL    HW130582   6.475   4.140   0.142
10113SOL    HW230583   6.495   3.994   0.176
10114SOL     OW30584   6.938   4.861   0.534
10114SOL    HW130585   6.986   4.833   0.456
10114SOL    HW230586   6.886   4.936   0.505
10115SOL     OW30587   6.138   3.899   0.900
10115SOL    HW130588   6.140   3.931   0.990
10115SOL    HW230589   6.137   3.977   0.846
10116SOL     OW30590   6.576   5.165   0.479
10116SOL    HW130591   6.543   5.239   0.428
10116SOL    HW230592   6.545   5.182   0.568
10117SOL     OW30593   5.940   5.539   0.873
10117SOL    HW130594   5.984   5.454   0.877
10117SOL    HW230595   6.009   5.603   0.891
10118SOL     OW30596   6.793   5.286   1.505
10118SOL    HW130597   6.798   5.212   1.566
10118SOL    HW230598   6.754   5.249   1.426
10119SOL     OW30599   5.895   4.683   0.226
10119SOL    HW130600   5.985   4.693   0.196
10119SOL    HW230601   5.873   4.592   0.208
10120SOL     OW30602   6.056   4.991   1.738
10120SOL    HW130603   6.029   4.997   1.646
10120SOL    HW230604   5.973   4.990   1.786
10121SOL     OW30605   6.686   5.488   0.235
10121SOL    HW130606   6.623   5.434   0.283
10121SOL    HW230607   6.708   5.436   0.158
10122SOL     OW30608   5.789   3.992   1.504
10122SOL    HW130609   5.708   4.044   1.509
10122SOL    HW230610   5.765   3.907   1.540
10123SOL     OW30611   0.237   5.101   0.035
10123SOL    HW130612   0.181   5.140   0.103
10123SOL    HW230613   0.215   5.008   0.037
10124SOL     OW30614   6.062   5.422   0.378
10124SOL    HW130615   6.095   5.502   0.418
10124SOL    HW230616   6.122   5.405   0.306
10125SOL     OW30617   5.843   5.514   1.227
10125SOL    HW130618   5.892   5.442   1.267
10125SOL    HW230619   5.834   5.488   1.135
10126SOL     OW30620   6.529   5.423   0.896
10126SOL    HW130621   6.612   5.376   0.904
10126SOL    HW230622   6.481   5.374   0.829
10127SOL     OW30623   5.986   4.416   0.465
10127SOL    HW130624   6.002   4.323   0.484
10127SOL    HW230625   5.893   4.429   0.483
10128SOL     OW30626   6.348   4.002   1.758
10128SOL    HW130627   6.427   3.948   1.754
10128SOL    HW230628   6.299   3.969   1.833
10129SOL     OW30629   6.460   5.253   1.194
10129SOL    HW130630   6.442   5.215   1.107
10129SOL    HW230631   6.528   5.196   1.231
10130SOL     OW30632   6.400   5.113   0.950
10130SOL    HW130633   6.485   5.100   0.908
10130SOL    HW230634   6.338   5.120   0.878
10131SOL     OW30635   6.515   4.232   0.903
10131SOL    HW130636   6.490   4.224   0.811
10131SOL    HW230637   6.545   4.144   0.926
10132SOL     OW30638   6.140   3.795   0.501
10132SOL    HW130639   6.060   3.793   0.553
10132SOL    HW230640   6.128   3.868   0.440
10133SOL     OW30641   6.529   3.973   0.462
10133SOL    HW130642   6.499   4.012   0.380
10133SOL    HW230643   6.624   3.988   0.462
10134SOL     OW30644   6.656   4.390   1.462
10134SOL    HW130645   6.566   4.359   1.460
10134SOL    HW230646   6.709   4.311   1.470
10135SOL     OW30647   6.778   5.303   0.800
10135SOL    HW130648   6.795   5.365   0.730
10135SOL    HW230649   6.864   5.286   0.838
10136SOL     OW30650   6.063   4.878   0.731
10136SOL    HW130651   5.992   4.856   0.791
10136SOL    HW230652   6.024   4.868   0.644
10137SOL     OW30653   6.832   5.521   0.605
10137SOL    HW130654   6.846   5.581   0.532
10137SOL    HW230655   6.767   5.566   0.660
10138SOL     OW30656   6.689   4.326   0.020
10138SOL    HW130657   6.594   4.321   0.026
10138SOL    HW230658   6.720   4.300   0.107
10139SOL     OW30659   5.672   4.277   1.393
10139SOL    HW130660   5.764   4.278   1.366
10139SOL    HW230661   5.666   4.347   1.458
10140SOL     OW30662   6.144   3.953   1.174
10140SOL    HW130663   6.185   3.879   1.218
10140SOL    HW230664   6.052   3.950   1.200
10141SOL     OW30665   6.449   4.176   0.644
10141SOL    HW130666   6.415   4.237   0.579
10141SOL    HW230667   6.472   4.098   0.594
10142SOL     OW30668   6.608   3.772   0.741
10142SOL    HW130669   6.543   3.769   0.670
10142SOL    HW230670   6.582   3.701   0.799
10143SOL     OW30671   6.060   5.152   0.152
10143SOL    HW130672   6.003   5.101   0.209
10143SOL    HW230673   6.018   5.148   0.066
10144SOL     OW30674   6.092   3.986   0.311
10144SOL    HW130675   6.119   3.930   0.238
10144SOL    HW230676   6.069   4.069   0.270
10145SOL     OW30677   6.624   5.074   1.325
10145SOL    HW130678   6.546   5.046   1.373
10145SOL    HW230679   6.697   5.029   1.368
10146SOL     OW30680   6.734   4.950   1.096
10146SOL    HW130681   6.672   4.980   1.163
10146SOL    HW230682   6.694   4.977   1.013
10147SOL     OW30683   6.498   3.819   1.383
10147SOL    HW130684   6.521   3.798   1.293
10147SOL    HW230685   6.578   3.855   1.421
10148SOL     OW30686   6.572   4.839   1.732
10148SOL    HW130687   6.481   4.858   1.754
10148SOL    HW230688   6.567   4.764   1.673
10149SOL     OW30689   6.296   4.786   0.373
10149SOL    HW130690   6.280   4.766   0.466
10149SOL    HW230691   6.370   4.731   0.349
10150SOL     OW30692   6.009   4.545   1.253
10150SOL    HW130693   6.077   4.553   1.320
10150SOL    HW230694   5.974   4.456   1.266
10151SOL     OW30695   6.852   4.095   1.296
10151SOL    HW130696   6.904   4.174   1.314
10151SOL    HW230697   6.766   4.128   1.270
10152SOL     OW30698   5.662   5.298   1.358
10152SOL    HW130699   5.634   5.368   1.300
10152SOL    HW230700   5.757   5.295   1.349
10153SOL     OW30701   5.953   4.843   0.486
10153SOL    HW130702   5.933   4.916   0.426
10153SOL    HW230703   5.943   4.765   0.433
10154SOL     OW30704   6.131   4.254   0.860
10154SOL    HW130705   6.145   4.312   0.785
10154SOL    HW230706   6.200   4.279   0.922
10155SOL     OW30707   6.831   5.087   0.420
10155SOL    HW130708   6.875   5.166   0.451
10155SOL    HW230709   6.738   5.104   0.435
10156SOL     OW30710   6.854   5.206   1.139
10156SOL    HW130711   6.930   5.196   1.197
10156SOL    HW230712   6.817   5.118   1.133
10157SOL     OW30713   5.932   5.255   1.308
10157SOL    HW130714   5.921   5.208   1.225
10157SOL    HW230715   6.026   5.266   1.318
10158SOL     OW30716   6.004   4.471   1.604
10158SOL    HW130717   6.069   4.512   1.547
10158SOL    HW230718   6.040   4.383   1.620
10159SOL     OW30719   6.576   3.848   1.758
10159SOL    HW130720   6.628   3.924   1.734
10159SOL    HW230721   6.631   3.773   1.735
10160SOL     OW30722   6.082   3.761   1.751
10160SOL    HW130723   6.034   3.708   1.688
10160SOL    HW230724   6.026   3.836   1.767
10161SOL     OW30725   6.172   4.598   1.033
10161SOL    HW130726   6.205   4.688   1.034
10161SOL    HW230727   6.114   4.593   1.109
10162SOL     OW30728   6.950   4.573   1.024
10162SOL    HW130729   6.861   4.555   0.994
10162SOL    HW230730   6.983   4.487   1.052
10163SOL     OW30731   6.766   4.240   0.264
10163SOL    HW130732   6.779   4.168   0.325
10163SOL    HW230733   6.732   4.311   0.318
10164SOL     OW30734   5.882   3.920   1.246
10164SOL    HW130735   5.845   3.951   1.329
10164SOL    HW230736   5.864   3.826   1.246
10165SOL     OW30737   5.631   5.036   1.273
10165SOL    HW130738   5.663   4.980   1.343
10165SOL    HW230739   5.637   5.125   1.308
10166SOL     OW30740   6.305   4.353   1.053
10166SOL    HW130741   6.382   4.341   0.996
10166SOL    HW230742   6.275   4.442   1.034
10167SOL     OW30743   5.896   3.789   0.627
10167SOL    HW130744   5.871   3.879   0.649
10167SOL    HW230745   5.904   3.746   0.712
10168SOL     OW30746   0.185   4.147   0.377
10168SOL    HW130747   0.273   4.130   0.409
10168SOL    HW230748   0.155   4.223   0.427
10169SOL     OW30749   6.612   4.482   0.958
10169SOL    HW130750   6.604   4.497   1.052
10169SOL    HW230751   6.588   4.390   0.946
10170SOL     OW30752   6.553   5.295   1.709
10170SOL    HW130753   6.540   5.333   1.623
10170SOL    HW230754   6.603   5.215   1.694
10171SOL     OW30755   5.937   4.640   1.811
10171SOL    HW130756   6.017   4.660   1.859
10171SOL    HW230757   5.964   4.578   1.743
10172SOL     OW30758   6.890   4.570   0.031
10172SOL    HW130759   6.910   4.484   6.993
10172SOL    HW230760   6.905   4.632   6.960
10173SOL     OW30761   6.647   5.059   0.857
10173SOL    HW130762   6.654   4.989   0.792
10173SOL    HW230763   6.697   5.131   0.819
10174SOL     OW30764   5.895   4.534   0.946
10174SOL    HW130765   5.988   4.553   0.939
10174SOL    HW230766   5.891   4.443   0.977
10175SOL     OW30767   5.911   4.256   1.014
10175SOL    HW130768   5.875   4.168   1.001
10175SOL    HW230769   5.988   4.258   0.957
10176SOL     OW30770   6.696   4.084   1.684
10176SOL    HW130771   6.651   4.142   1.745
10176SOL    HW230772   6.786   4.114   1.684
10177SOL     OW30773   6.739   3.914   1.471
10177SOL    HW130774   6.722   3.973   1.543
10177SOL    HW230775   6.784   3.968   1.405
10178SOL     OW30776   5.676   5.505   0.943
10178SOL    HW130777   5.645   5.428   0.895
10178SOL    HW230778   5.765   5.519   0.911
10179SOL     OW30779   6.076   5.299   0.903
10179SOL    HW130780   6.145   5.360   0.927
10179SOL    HW230781   6.118   5.235   0.846
10180SOL     OW30782   6.562   4.508   1.224
10180SOL    HW130783   6.623   4.487   1.295
10180SOL    HW230784   6.479   4.470   1.251
10181SOL     OW30785   5.623   4.274   1.117
10181SOL    HW130786   5.703   4.269   1.066
10181SOL    HW230787   5.652   4.274   1.208
10182SOL     OW30788   5.777   4.247   1.733
10182SOL    HW130789   5.829   4.201   1.667
10182SOL    HW230790   5.742   4.324   1.687
10183SOL     OW30791   6.404   4.295   0.384
10183SOL    HW130792   6.409   4.220   0.325
10183SOL    HW230793   6.329   4.346   0.352
10184SOL     OW30794   5.822   5.272   1.722
10184SOL    HW130795   5.802   5.335   1.791
10184SOL    HW230796   5.831   5.188   1.768
10185SOL     OW30797   6.305   4.170   1.252
10185SOL    HW130798   6.246   4.098   1.230
10185SOL    HW230799   6.295   4.233   1.181
10186SOL     OW30800   6.496   5.409   1.466
10186SOL    HW130801   6.481   5.365   1.382
10186SOL    HW230802   6.487   5.502   1.445
10187SOL     OW30803   6.040   4.222   0.182
10187SOL    HW130804   6.100   4.291   0.210
10187SOL    HW230805   5.953   4.263   0.184
10188SOL     OW30806   5.724   4.868   1.475
10188SOL    HW130807   5.728   4.822   1.559
10188SOL    HW230808   5.742   4.800   1.410
10189SOL     OW30809   6.891   4.765   1.225
10189SOL    HW130810   6.917   4.699   1.161
10189SOL    HW230811   6.835   4.825   1.177
10190SOL     OW30812   6.890   4.578   0.311
10190SOL    HW130813   6.812   4.539   0.351
10190SOL    HW230814   6.878   4.567   0.217
10191SOL     OW30815   6.851   5.478   1.112
10191SOL    HW130816   6.928   5.485   1.057
10191SOL    HW230817   6.840   5.384   1.126
10192SOL     OW30818   5.674   4.990   1.009
10192SOL    HW130819   5.654   5.004   1.101
10192SOL    HW230820   5.603   4.933   0.977
10193SOL     OW30821   6.266   5.397   1.745
10193SOL    HW130822   6.210   5.472   1.728
10193SOL    HW230823   6.341   5.409   1.687
10194SOL     OW30824   6.529   3.823   0.120
10194SOL    HW130825   6.605   3.857   0.073
10194SOL    HW230826   6.565   3.756   0.178
10195SOL     OW30827   6.974   5.309   0.501
10195SOL    HW130828   0.053   5.352   0.467
10195SOL    HW230829   6.917   5.381   0.527
10196SOL     OW30830   5.726   5.521   1.843
10196SOL    HW130831   5.677   5.453   1.888
10196SOL    HW230832   5.773   5.567   1.912
10197SOL     OW30833   6.866   4.643   0.668
10197SOL    HW130834   6.950   4.601   0.686
10197SOL    HW230835   6.888   4.722   0.619
10198SOL     OW30836   6.379   4.998   1.421
10198SOL    HW130837   6.351   5.043   1.501
10198SOL    HW230838   6.308   5.016   1.359
10199SOL     OW30839   6.251   5.340   0.199
10199SOL    HW130840   6.304   5.357   0.121
10199SOL    HW230841   6.198   5.264   0.175
10200SOL     OW30842   5.842   4.040   0.715
10200SOL    HW130843   5.755   4.074   0.693
10200SOL    HW230844   5.841   4.035   0.811
10201SOL     OW30845   6.738   5.346   0.003
10201SOL    HW130846   6.821   5.320   0.043
10201SOL    HW230847   6.738   5.303   6.918
10202SOL     OW30848   6.412   4.730   1.377
10202SOL    HW130849   6.450   4.726   1.290
10202SOL    HW230850   6.403   4.823   1.396
10203SOL     OW30851   6.497   4.630   0.291
10203SOL    HW130852   6.549   4.658   0.216
10203SOL    HW230853   6.554   4.568   0.337
10204SOL     OW30854   5.951   5.029   1.493
10204SOL    HW130855   5.940   5.105   1.435
10204SOL    HW230856   5.874   4.976   1.477
10205SOL     OW30857   6.644   4.833   0.708
10205SOL    HW130858   6.572   4.783   0.747
10205SOL    HW230859   6.707   4.767   0.681
10206SOL     OW30860   6.608   3.965   0.964
10206SOL    HW130861   6.603   3.918   0.880
10206SOL    HW230862   6.604   3.896   1.030
10207SOL     OW30863   6.201   5.201   0.485
10207SOL    HW130864   6.238   5.156   0.409
10207SOL    HW230865   6.137   5.262   0.449
10208SOL     OW30866   5.866   5.039   0.307
10208SOL    HW130867   5.780   5.018   0.269
10208SOL    HW230868   5.845   5.092   0.384
10209SOL     OW30869   5.702   4.761   1.728
10209SOL    HW130870   5.625   4.732   1.777
10209SOL    HW230871   5.775   4.715   1.769
10210SOL     OW30872   6.261   3.920   1.500
10210SOL    HW130873   6.344   3.898   1.458
10210SOL    HW230874   6.285   3.952   1.587
10211SOL     OW30875   5.692   4.041   0.010
10211SOL    HW130876   5.634   3.988   6.955
10211SOL    HW230877   5.712   4.118   6.956
10212SOL     OW30878   5.633   3.894   0.327
10212SOL    HW130879   5.626   3.983   0.294
10212SOL    HW230880   5.701   3.854   0.273
10213SOL     OW30881   6.210   4.552   1.436
10213SOL    HW130882   6.266   4.628   1.422
10213SOL    HW230883   6.270   4.478   1.443
10214SOL     OW30884   6.308   4.281   1.697
10214SOL    HW130885   6.350   4.338   1.761
10214SOL    HW230886   6.321   4.193   1.732
10215SOL     OW30887   6.990   4.985   1.646
10215SOL    HW130888   6.999   4.926   1.721
10215SOL    HW230889   0.071   4.972   1.596
10216SOL     OW30890   5.955   5.466   1.567
10216SOL    HW130891   5.872   5.512   1.552
10216SOL    HW230892   5.929   5.383   1.607
10217SOL     OW30893   6.801   4.036   0.445
10217SOL    HW130894   6.871   3.983   0.408
10217SOL    HW230895   6.841   4.081   0.519
10218SOL     OW30896   6.170   4.456   0.673
10218SOL    HW130897   6.212   4.541   0.661
10218SOL    HW230898   6.107   4.449   0.601
10219SOL     OW30899   6.446   5.102   0.028
10219SOL    HW130900   6.413   5.072   0.112
10219SOL    HW230901   6.458   5.196   0.039
10220SOL     OW30902   6.250   5.506   0.936
10220SOL    HW130903   6.232   5.598   0.919
10220SOL    HW230904   6.345   5.499   0.934
10221SOL     OW30905   6.455   4.696   0.855
10221SOL    HW130906   6.505   4.622   0.891
10221SOL    HW230907   6.415   4.738   0.932
10222SOL     OW30908   6.656   4.703   0.084
10222SOL    HW130909   6.692   4.791   0.072
10222SOL    HW230910   6.730   4.645   0.067
10223SOL     OW30911   5.810   5.021   1.851
10223SOL    HW130912   5.753   4.953   1.816
10223SOL    HW230913   5.780   5.033   1.941
10224SOL     OW30914   5.673   4.956   0.667
10224SOL    HW130915   5.702   4.907   0.744
10224SOL    HW230916   5.712   4.910   0.593
10225SOL     OW30917   6.264   5.136   1.624
10225SOL    HW130918   6.190   5.091   1.665
10225SOL    HW230919   6.268   5.221   1.669
10226SOL     OW30920   6.014   4.157   0.526
10226SOL    HW130921   6.040   4.084   0.470
10226SOL    HW230922   5.963   4.115   0.596
10227SOL     OW30923   5.924   4.286   1.293
10227SOL    HW130924   5.977   4.226   1.347
10227SOL    HW230925   5.939   4.256   1.203
10228SOL     OW30926   6.414   5.304   0.679
10228SOL    HW130927   6.396   5.367   0.608
10228SOL    HW230928   6.340   5.244   0.677
10229SOL     OW30929   6.990   3.940   1.116
10229SOL    HW130930   6.988   3.850   1.150
10229SOL    HW230931   6.944   3.991   1.183
10230SOL     OW30932   6.600   3.738   1.132
10230SOL    HW130933   6.551   3.668   1.088
10230SOL    HW230934   6.690   3.704   1.137
10231SOL     OW30935   6.371   5.044   0.302
10231SOL    HW130936   6.338   4.958   0.323
10231SOL    HW230937   6.447   5.056   0.360
10232SOL     OW30938   6.205   5.282   1.286
10232SOL    HW130939   6.205   5.364   1.335
10232SOL    HW230940   6.294   5.276   1.251
10233SOL     OW30941   5.673   4.779   0.373
10233SOL    HW130942   5.749   4.751   0.322
10233SOL    HW230943   5.619   4.700   0.381
10234SOL     OW30944   6.467   5.382   0.361
10234SOL    HW130945   6.391   5.362   0.307
10234SOL    HW230946   6.442   5.460   0.410
10235SOL     OW30947   5.806   4.347   1.994
10235SOL    HW130948   5.717   4.342   2.029
10235SOL    HW230949   5.797   4.325   1.901
10236SOL     OW30950   5.810   4.009   2.855
10236SOL    HW130951   5.838   3.973   2.939
10236SOL    HW230952   5.721   3.976   2.843
10237SOL     OW30953   5.584   4.109   2.501
10237SOL    HW130954   5.503   4.136   2.545
10237SOL    HW230955   5.558   4.032   2.450
10238SOL     OW30956   6.155   5.024   3.049
10238SOL    HW130957   6.070   5.029   3.006
10238SOL    HW230958   6.172   5.113   3.080
10239SOL     OW30959   0.064   5.267   2.624
10239SOL    HW130960   0.097   5.177   2.623
10239SOL    HW230961   0.037   5.283   2.534
10240SOL     OW30962   6.688   4.442   2.547
10240SOL    HW130963   6.753   4.512   2.540
10240SOL    HW230964   6.657   4.447   2.638
10241SOL     OW30965   6.328   4.860   2.912
10241SOL    HW130966   6.263   4.899   2.971
10241SOL    HW230967   6.369   4.934   2.868
10242SOL     OW30968   6.463   4.484   3.689
10242SOL    HW130969   6.446   4.552   3.754
10242SOL    HW230970   6.484   4.533   3.609
10243SOL     OW30971   6.271   4.719   2.505
10243SOL    HW130972   6.338   4.712   2.573
10243SOL    HW230973   6.203   4.775   2.543
10244SOL     OW30974   6.295   4.869   3.678
10244SOL    HW130975   6.340   4.948   3.709
10244SOL    HW230976   6.215   4.901   3.638
10245SOL     OW30977   5.918   5.139   2.929
10245SOL    HW130978   5.844   5.099   2.884
10245SOL    HW230979   5.962   5.191   2.862
10246SOL     OW30980   6.039   4.115   3.337
10246SOL    HW130981   6.114   4.056   3.347
10246SOL    HW230982   5.963   4.060   3.358
10247SOL     OW30983   5.805   5.441   2.330
10247SOL    HW130984   5.827   5.515   2.386
10247SOL    HW230985   5.880   5.433   2.270
10248SOL     OW30986   6.726   5.074   3.568
10248SOL    HW130987   6.811   5.036   3.546
10248SOL    HW230988   6.667   4.999   3.576
10249SOL     OW30989   5.820   5.170   2.399
10249SOL    HW130990   5.800   5.264   2.399
10249SOL    HW230991   5.762   5.133   2.465
10250SOL     OW30992   5.855   4.815   2.753
10250SOL    HW130993   5.851   4.727   2.789
10250SOL    HW230994   5.797   4.867   2.808
10251SOL     OW30995   6.181   5.521   3.284
10251SOL    HW130996   6.103   5.500   3.335
10251SOL    HW230997   6.208   5.607   3.315
10252SOL     OW30998   6.163   4.709   2.003
10252SOL    HW130999   6.211   4.754   1.934
10252SOL    HW231000   6.202   4.741   2.085
10253SOL     OW31001   5.705   4.380   2.423
10253SOL    HW131002   5.675   4.292   2.445
10253SOL    HW231003   5.696   4.429   2.505
10254SOL     OW31004   5.627   5.313   1.981
10254SOL    HW131005   5.608   5.221   2.001
10254SOL    HW231006   5.600   5.361   2.060
10255SOL     OW31007   5.711   4.469   3.446
10255SOL    HW131008   5.801   4.502   3.448
10255SOL    HW231009   5.657   4.548   3.447
10256SOL     OW31010   6.202   5.117   2.596
10256SOL    HW131011   6.158   5.032   2.604
10256SOL    HW231012   6.186   5.143   2.505
10257SOL     OW31013   6.830   4.943   3.291
10257SOL    HW131014   6.867   4.875   3.234
10257SOL    HW231015   6.894   4.952   3.362
10258SOL     OW31016   6.406   3.732   2.380
10258SOL    HW131017   6.446   3.815   2.354
10258SOL    HW231018   6.313   3.750   2.383
10259SOL     OW31019   5.773   4.684   3.144
10259SOL    HW131020   5.860   4.646   3.129
10259SOL    HW231021   5.716   4.638   3.082
10260SOL     OW31022   6.791   5.541   3.482
10260SOL    HW131023   6.768   5.602   3.411
10260SOL    HW231024   6.783   5.454   3.442
10261SOL     OW31025   5.931   3.973   3.697
10261SOL    HW131026   5.970   4.057   3.720
10261SOL    HW231027   5.837   3.985   3.714
10262SOL     OW31028   6.180   4.439   2.134
10262SOL    HW131029   6.182   4.524   2.089
10262SOL    HW231030   6.115   4.450   2.203
10263SOL     OW31031   6.872   4.044   2.751
10263SOL    HW131032   6.779   4.034   2.772
10263SOL    HW231033   6.918   4.009   2.827
10264SOL     OW31034   6.386   4.340   3.309
10264SOL    HW131035   6.356   4.314   3.397
10264SOL    HW231036   6.350   4.273   3.251
10265SOL     OW31037   6.942   4.192   3.545
10265SOL    HW131038   6.924   4.279   3.581
10265SOL    HW231039   0.037   4.189   3.536
10266SOL     OW31040   6.542   4.610   3.450
10266SOL    HW131041   6.595   4.541   3.411
10266SOL    HW231042   6.494   4.647   3.376
10267SOL     OW31043   6.586   4.138   3.094
10267SOL    HW131044   6.495   4.151   3.121
10267SOL    HW231045   6.580   4.097   3.008
10268SOL     OW31046   6.636   4.426   2.282
10268SOL    HW131047   6.652   4.427   2.377
10268SOL    HW231048   6.554   4.379   2.272
10269SOL     OW31049   5.674   4.546   2.640
10269SOL    HW131050   5.754   4.539   2.692
10269SOL    HW231051   5.628   4.622   2.676
10270SOL     OW31052   5.710   5.598   3.446
10270SOL    HW131053   5.714   5.575   3.539
10270SOL    HW231054   5.626   5.562   3.417
10271SOL     OW31055   6.484   4.074   2.057
10271SOL    HW131056   6.525   4.137   1.998
10271SOL    HW231057   6.484   3.992   2.008
10272SOL     OW31058   6.936   4.857   2.383
10272SOL    HW131059   6.989   4.840   2.305
10272SOL    HW231060   6.885   4.934   2.361
10273SOL     OW31061   6.138   3.898   2.763
10273SOL    HW131062   6.140   3.930   2.853
10273SOL    HW231063   6.137   3.978   2.709
10274SOL     OW31064   6.574   5.176   2.338
10274SOL    HW131065   6.545   5.249   2.282
10274SOL    HW231066   6.541   5.199   2.425
10275SOL     OW31067   5.940   5.539   2.735
10275SOL    HW131068   5.984   5.455   2.740
10275SOL    HW231069   6.008   5.604   2.753
10276SOL     OW31070   6.793   5.286   3.367
10276SOL    HW131071   6.798   5.212   3.428
10276SOL    HW231072   6.755   5.250   3.287
10277SOL     OW31073   5.898   4.685   2.118
10277SOL    HW131074   5.981   4.704   2.074
10277SOL    HW231075   5.870   4.602   2.080
10278SOL     OW31076   6.056   4.990   3.599
10278SOL    HW131077   6.029   4.996   3.508
10278SOL    HW231078   5.974   4.990   3.648
10279SOL     OW31079   6.719   5.495   2.106
10279SOL    HW131080   6.638   5.467   2.150
10279SOL    HW231081   6.728   5.434   2.032
10280SOL     OW31082   5.789   3.993   3.366
10280SOL    HW131083   5.709   4.046   3.374
10280SOL    HW231084   5.765   3.908   3.404
10281SOL     OW31085   6.046   5.461   2.180
10281SOL    HW131086   6.093   5.515   2.243
10281SOL    HW231087   6.115   5.424   2.124
10282SOL     OW31088   5.842   5.514   3.089
10282SOL    HW131089   5.892   5.443   3.129
10282SOL    HW231090   5.834   5.488   2.997
10283SOL     OW31091   6.530   5.423   2.757
10283SOL    HW131092   6.613   5.377   2.767
10283SOL    HW231093   6.483   5.374   2.690
10284SOL     OW31094   5.983   4.417   2.334
10284SOL    HW131095   5.999   4.324   2.348
10284SOL    HW231096   5.890   4.429   2.350
10285SOL     OW31097   6.234   3.839   1.963
10285SOL    HW131098   6.288   3.763   1.983
10285SOL    HW231099   6.178   3.810   1.891
10286SOL     OW31100   6.348   4.002   3.619
10286SOL    HW131101   6.427   3.948   3.616
10286SOL    HW231102   6.300   3.969   3.695
10287SOL     OW31103   6.460   5.252   3.055
10287SOL    HW131104   6.442   5.215   2.969
10287SOL    HW231105   6.528   5.196   3.093
10288SOL     OW31106   6.400   5.112   2.811
10288SOL    HW131107   6.486   5.100   2.769
10288SOL    HW231108   6.339   5.119   2.738
10289SOL     OW31109   6.514   4.232   2.762
10289SOL    HW131110   6.489   4.224   2.670
10289SOL    HW231111   6.544   4.144   2.786
10290SOL     OW31112   6.140   3.788   2.356
10290SOL    HW131113   6.060   3.787   2.409
10290SOL    HW231114   6.130   3.864   2.300
10291SOL     OW31115   6.993   4.849   1.881
10291SOL    HW131116   0.020   4.804   1.961
10291SOL    HW231117   6.925   4.910   1.910
10292SOL     OW31118   5.873   3.772   2.048
10292SOL    HW131119   5.929   3.837   2.004
10292SOL    HW231120   5.934   3.712   2.090
10293SOL     OW31121   6.531   3.974   2.313
10293SOL    HW131122   6.503   4.012   2.230
10293SOL    HW231123   6.626   3.988   2.316
10294SOL     OW31124   6.656   4.391   3.324
10294SOL    HW131125   6.566   4.359   3.322
10294SOL    HW231126   6.710   4.312   3.332
10295SOL     OW31127   6.780   5.302   2.661
10295SOL    HW131128   6.796   5.365   2.591
10295SOL    HW231129   6.866   5.284   2.698
10296SOL     OW31130   6.060   4.879   2.586
10296SOL    HW131131   5.994   4.858   2.652
10296SOL    HW231132   6.014   4.867   2.503
10297SOL     OW31133   6.835   5.520   2.470
10297SOL    HW131134   6.859   5.582   2.401
10297SOL    HW231135   6.768   5.566   2.521
10298SOL     OW31136   6.609   4.255   1.884
10298SOL    HW131137   6.566   4.340   1.870
10298SOL    HW231138   6.671   4.271   1.954
10299SOL     OW31139   5.672   4.278   3.255
10299SOL    HW131140   5.764   4.278   3.228
10299SOL    HW231141   5.666   4.347   3.320
10300SOL     OW31142   6.144   3.953   3.036
10300SOL    HW131143   6.185   3.881   3.083
10300SOL    HW231144   6.052   3.949   3.063
10301SOL     OW31145   6.448   4.175   2.501
10301SOL    HW131146   6.410   4.237   2.439
10301SOL    HW231147   6.472   4.100   2.448
10302SOL     OW31148   6.608   3.774   2.604
10302SOL    HW131149   6.544   3.771   2.533
10302SOL    HW231150   6.583   3.702   2.662
10303SOL     OW31151   6.075   5.148   2.017
10303SOL    HW131152   5.997   5.117   2.064
10303SOL    HW231153   6.076   5.094   1.937
10304SOL     OW31154   6.112   3.985   2.171
10304SOL    HW131155   6.163   3.942   2.102
10304SOL    HW231156   6.085   4.068   2.131
10305SOL     OW31157   6.624   5.073   3.186
10305SOL    HW131158   6.546   5.045   3.235
10305SOL    HW231159   6.697   5.029   3.229
10306SOL     OW31160   6.734   4.950   2.958
10306SOL    HW131161   6.673   4.980   3.025
10306SOL    HW231162   6.694   4.977   2.875
10307SOL     OW31163   6.498   3.819   3.245
10307SOL    HW131164   6.522   3.798   3.155
10307SOL    HW231165   6.578   3.855   3.283
10308SOL     OW31166   6.572   4.839   3.594
10308SOL    HW131167   6.481   4.858   3.616
10308SOL    HW231168   6.567   4.764   3.535
10309SOL     OW31169   6.297   4.787   2.233
10309SOL    HW131170   6.282   4.765   2.325
10309SOL    HW231171   6.372   4.734   2.207
10310SOL     OW31172   6.009   4.544   3.115
10310SOL    HW131173   6.077   4.553   3.182
10310SOL    HW231174   5.974   4.456   3.128
10311SOL     OW31175   6.853   4.095   3.159
10311SOL    HW131176   6.905   4.174   3.176
10311SOL    HW231177   6.767   4.128   3.132
10312SOL     OW31178   5.662   5.298   3.220
10312SOL    HW131179   5.634   5.369   3.163
10312SOL    HW231180   5.757   5.296   3.212
10313SOL     OW31181   5.919   4.846   2.351
10313SOL    HW131182   5.921   4.919   2.289
10313SOL    HW231183   5.918   4.768   2.295
10314SOL     OW31184   6.131   4.254   2.722
10314SOL    HW131185   6.145   4.312   2.647
10314SOL    HW231186   6.199   4.279   2.784
10315SOL     OW31187   6.826   5.091   2.286
10315SOL    HW131188   6.873   5.168   2.319
10315SOL    HW231189   6.734   5.111   2.303
10316SOL     OW31190   6.854   5.206   3.002
10316SOL    HW131191   6.930   5.197   3.059
10316SOL    HW231192   6.818   5.118   2.996
10317SOL     OW31193   5.931   5.255   3.170
10317SOL    HW131194   5.921   5.208   3.087
10317SOL    HW231195   6.026   5.266   3.180
10318SOL     OW31196   6.005   4.470   3.466
10318SOL    HW131197   6.069   4.512   3.409
10318SOL    HW231198   6.042   4.383   3.483
10319SOL     OW31199   6.576   3.848   3.620
10319SOL    HW131200   6.628   3.924   3.596
10319SOL    HW231201   6.631   3.773   3.597
10320SOL     OW31202   6.083   3.761   3.612
10320SOL    HW131203   6.034   3.707   3.549
10320SOL    HW231204   6.026   3.836   3.629
10321SOL     OW31205   6.172   4.598   2.895
10321SOL    HW131206   6.206   4.688   2.897
10321SOL    HW231207   6.114   4.593   2.971
10322SOL     OW31208   6.949   4.572   2.886
10322SOL    HW131209   6.860   4.554   2.857
10322SOL    HW231210   6.983   4.487   2.914
10323SOL     OW31211   6.766   4.259   2.108
10323SOL    HW131212   6.782   4.180   2.161
10323SOL    HW231213   6.731   4.322   2.170
10324SOL     OW31214   5.881   3.920   3.109
10324SOL    HW131215   5.845   3.951   3.192
10324SOL    HW231216   5.863   3.826   3.109
10325SOL     OW31217   5.633   5.036   3.135
10325SOL    HW131218   5.664   4.980   3.206
10325SOL    HW231219   5.638   5.125   3.171
10326SOL     OW31220   6.305   4.353   2.914
10326SOL    HW131221   6.382   4.341   2.857
10326SOL    HW231222   6.276   4.442   2.896
10327SOL     OW31223   5.897   3.784   2.487
10327SOL    HW131224   5.872   3.874   2.507
10327SOL    HW231225   5.904   3.742   2.573
10328SOL     OW31226   0.208   4.184   2.190
10328SOL    HW131227   0.166   4.098   2.193
10328SOL    HW231228   0.190   4.223   2.276
10329SOL     OW31229   6.612   4.482   2.820
10329SOL    HW131230   6.603   4.497   2.914
10329SOL    HW231231   6.588   4.390   2.808
10330SOL     OW31232   6.552   5.294   3.572
10330SOL    HW131233   6.540   5.332   3.485
10330SOL    HW231234   6.603   5.215   3.556
10331SOL     OW31235   5.937   4.640   3.673
10331SOL    HW131236   6.017   4.660   3.721
10331SOL    HW231237   5.964   4.578   3.606
10332SOL     OW31238   6.897   4.537   1.887
10332SOL    HW131239   6.962   4.480   1.927
10332SOL    HW231240   6.938   4.567   1.805
10333SOL     OW31241   6.647   5.059   2.718
10333SOL    HW131242   6.655   4.989   2.653
10333SOL    HW231243   6.698   5.132   2.681
10334SOL     OW31244   5.894   4.534   2.808
10334SOL    HW131245   5.988   4.553   2.801
10334SOL    HW231246   5.891   4.443   2.839
10335SOL     OW31247   5.911   4.256   2.875
10335SOL    HW131248   5.875   4.168   2.863
10335SOL    HW231249   5.988   4.259   2.819
10336SOL     OW31250   6.696   4.084   3.546
10336SOL    HW131251   6.651   4.142   3.608
10336SOL    HW231252   6.786   4.114   3.546
10337SOL     OW31253   6.739   3.914   3.333
10337SOL    HW131254   6.723   3.974   3.406
10337SOL    HW231255   6.784   3.968   3.267
10338SOL     OW31256   5.594   5.039   2.055
10338SOL    HW131257   5.507   5.057   2.020
10338SOL    HW231258   5.589   4.951   2.090
10339SOL     OW31259   5.676   5.504   2.805
10339SOL    HW131260   5.645   5.427   2.757
10339SOL    HW231261   5.765   5.519   2.772
10340SOL     OW31262   6.076   5.298   2.766
10340SOL    HW131263   6.146   5.360   2.789
10340SOL    HW231264   6.119   5.236   2.707
10341SOL     OW31265   6.562   4.508   3.085
10341SOL    HW131266   6.623   4.488   3.156
10341SOL    HW231267   6.479   4.470   3.114
10342SOL     OW31268   5.623   4.274   2.979
10342SOL    HW131269   5.704   4.269   2.929
10342SOL    HW231270   5.652   4.274   3.071
10343SOL     OW31271   5.777   4.248   3.595
10343SOL    HW131272   5.831   4.204   3.530
10343SOL    HW231273   5.742   4.325   3.549
10344SOL     OW31274   6.402   4.293   2.230
10344SOL    HW131275   6.408   4.220   2.169
10344SOL    HW231276   6.328   4.345   2.199
10345SOL     OW31277   5.822   5.272   3.584
10345SOL    HW131278   5.802   5.335   3.652
10345SOL    HW231279   5.831   5.189   3.630
10346SOL     OW31280   6.305   4.170   3.114
10346SOL    HW131281   6.245   4.098   3.092
10346SOL    HW231282   6.295   4.233   3.043
10347SOL     OW31283   6.496   5.409   3.328
10347SOL    HW131284   6.482   5.365   3.244
10347SOL    HW231285   6.487   5.503   3.307
10348SOL     OW31286   6.044   4.215   2.040
10348SOL    HW131287   6.104   4.285   2.066
10348SOL    HW231288   5.958   4.258   2.033
10349SOL     OW31289   5.724   4.868   3.337
10349SOL    HW131290   5.727   4.822   3.421
10349SOL    HW231291   5.742   4.800   3.272
10350SOL     OW31292   6.891   4.765   3.087
10350SOL    HW131293   6.917   4.699   3.022
10350SOL    HW231294   6.835   4.825   3.038
10351SOL     OW31295   6.887   4.591   2.172
10351SOL    HW131296   6.823   4.553   2.232
10351SOL    HW231297   6.853   4.569   2.085
10352SOL     OW31298   6.850   5.478   2.973
10352SOL    HW131299   6.928   5.485   2.918
10352SOL    HW231300   6.840   5.384   2.987
10353SOL     OW31301   5.675   4.988   2.872
10353SOL    HW131302   5.656   5.004   2.964
10353SOL    HW231303   5.603   4.933   2.841
10354SOL     OW31304   6.266   5.397   3.607
10354SOL    HW131305   6.210   5.472   3.590
10354SOL    HW231306   6.341   5.409   3.549
10355SOL     OW31307   6.977   5.310   2.359
10355SOL    HW131308   0.057   5.351   2.327
10355SOL    HW231309   6.921   5.383   2.385
10356SOL     OW31310   5.727   5.520   3.705
10356SOL    HW131311   5.677   5.453   3.751
10356SOL    HW231312   5.774   5.567   3.774
10357SOL     OW31313   6.865   4.643   2.525
10357SOL    HW131314   6.950   4.604   2.551
10357SOL    HW231315   6.889   4.719   2.473
10358SOL     OW31316   6.379   4.998   3.283
10358SOL    HW131317   6.352   5.043   3.363
10358SOL    HW231318   6.308   5.016   3.221
10359SOL     OW31319   6.252   5.354   2.020
10359SOL    HW131320   6.266   5.367   1.926
10359SOL    HW231321   6.199   5.274   2.025
10360SOL     OW31322   5.841   4.035   2.575
10360SOL    HW131323   5.755   4.070   2.552
10360SOL    HW231324   5.841   4.032   2.671
10361SOL     OW31325   6.750   5.322   1.903
10361SOL    HW131326   6.770   5.231   1.882
10361SOL    HW231327   6.688   5.349   1.835
10362SOL     OW31328   6.412   4.730   3.240
10362SOL    HW131329   6.452   4.726   3.152
10362SOL    HW231330   6.403   4.823   3.258
10363SOL     OW31331   6.503   4.635   2.149
10363SOL    HW131332   6.566   4.667   2.085
10363SOL    HW231333   6.550   4.568   2.198
10364SOL     OW31334   5.951   5.029   3.355
10364SOL    HW131335   5.940   5.105   3.298
10364SOL    HW231336   5.873   4.975   3.339
10365SOL     OW31337   6.646   4.833   2.570
10365SOL    HW131338   6.574   4.783   2.608
10365SOL    HW231339   6.710   4.766   2.544
10366SOL     OW31340   6.609   3.966   2.826
10366SOL    HW131341   6.605   3.919   2.743
10366SOL    HW231342   6.605   3.897   2.893
10367SOL     OW31343   6.193   5.212   2.340
10367SOL    HW131344   6.244   5.162   2.277
10367SOL    HW231345   6.116   5.241   2.291
10368SOL     OW31346   5.849   5.064   2.156
10368SOL    HW131347   5.757   5.060   2.130
10368SOL    HW231348   5.848   5.106   2.242
10369SOL     OW31349   5.701   4.760   3.589
10369SOL    HW131350   5.625   4.731   3.639
10369SOL    HW231351   5.775   4.715   3.630
10370SOL     OW31352   6.261   3.920   3.361
10370SOL    HW131353   6.345   3.898   3.321
10370SOL    HW231354   6.285   3.952   3.448
10371SOL     OW31355   5.666   4.050   1.892
10371SOL    HW131356   5.581   4.031   1.852
10371SOL    HW231357   5.697   4.129   1.847
10372SOL     OW31358   5.645   3.877   2.161
10372SOL    HW131359   5.632   3.955   2.107
10372SOL    HW231360   5.731   3.844   2.134
10373SOL     OW31361   6.210   4.552   3.298
10373SOL    HW131362   6.266   4.628   3.284
10373SOL    HW231363   6.270   4.478   3.305
10374SOL     OW31364   6.307   4.281   3.559
10374SOL    HW131365   6.350   4.339   3.622
10374SOL    HW231366   6.321   4.193   3.594
10375SOL     OW31367   6.990   4.985   3.508
10375SOL    HW131368   6.999   4.926   3.583
10375SOL    HW231369   0.071   4.973   3.458
10376SOL     OW31370   5.955   5.466   3.429
10376SOL    HW131371   5.872   5.512   3.414
10376SOL    HW231372   5.929   5.383   3.469
10377SOL     OW31373   6.811   4.042   2.296
10377SOL    HW131374   6.885   3.994   2.258
10377SOL    HW231375   6.847   4.087   2.372
10378SOL     OW31376   6.171   4.456   2.537
10378SOL    HW131377   6.212   4.541   2.522
10378SOL    HW231378   6.107   4.448   2.466
10379SOL     OW31379   6.423   5.094   1.895
10379SOL    HW131380   6.411   5.115   1.987
10379SOL    HW231381   6.456   5.174   1.855
10380SOL     OW31382   6.250   5.505   2.796
10380SOL    HW131383   6.231   5.598   2.781
10380SOL    HW231384   6.346   5.500   2.797
10381SOL     OW31385   6.455   4.696   2.716
10381SOL    HW131386   6.505   4.623   2.751
10381SOL    HW231387   6.415   4.738   2.792
10382SOL     OW31388   6.676   4.705   1.952
10382SOL    HW131389   6.646   4.760   1.880
10382SOL    HW231390   6.744   4.651   1.913
10383SOL     OW31391   5.811   5.022   3.713
10383SOL    HW131392   5.752   4.954   3.679
10383SOL    HW231393   5.783   5.034   3.804
10384SOL     OW31394   5.678   4.952   2.527
10384SOL    HW131395   5.691   4.908   2.611
10384SOL    HW231396   5.744   4.914   2.469
10385SOL     OW31397   6.263   5.136   3.486
10385SOL    HW131398   6.190   5.091   3.527
10385SOL    HW231399   6.268   5.221   3.531
10386SOL     OW31400   6.013   4.156   2.386
10386SOL    HW131401   6.045   4.085   2.330
10386SOL    HW231402   5.963   4.111   2.455
10387SOL     OW31403   5.923   4.285   3.155
10387SOL    HW131404   5.976   4.226   3.209
10387SOL    HW231405   5.939   4.256   3.065
10388SOL     OW31406   6.414   5.306   2.538
10388SOL    HW131407   6.388   5.372   2.474
10388SOL    HW231408   6.340   5.245   2.542
10389SOL     OW31409   6.990   3.941   2.977
10389SOL    HW131410   6.991   3.852   3.012
10389SOL    HW231411   6.944   3.992   3.044
10390SOL     OW31412   6.600   3.738   2.994
10390SOL    HW131413   6.551   3.669   2.950
10390SOL    HW231414   6.690   3.705   2.999
10391SOL     OW31415   6.362   5.058   2.183
10391SOL    HW131416   6.335   4.966   2.190
10391SOL    HW231417   6.443   5.064   2.232
10392SOL     OW31418   6.205   5.282   3.148
10392SOL    HW131419   6.205   5.364   3.197
10392SOL    HW231420   6.294   5.275   3.113
10393SOL     OW31421   6.907   3.811   2.005
10393SOL    HW131422   6.936   3.761   1.929
10393SOL    HW231423   6.835   3.761   2.042
10394SOL     OW31424   5.628   4.788   2.171
10394SOL    HW131425   5.721   4.780   2.152
10394SOL    HW231426   5.600   4.699   2.192
10395SOL     OW31427   6.472   5.391   2.200
10395SOL    HW131428   6.397   5.374   2.142
10395SOL    HW231429   6.441   5.461   2.258
10396SOL     OW31430   5.806   4.347   3.856
10396SOL    HW131431   5.717   4.342   3.892
10396SOL    HW231432   5.796   4.325   3.764
10397SOL     OW31433   5.810   4.008   4.717
10397SOL    HW131434   5.838   3.973   4.801
10397SOL    HW231435   5.721   3.976   4.705
10398SOL     OW31436   5.583   4.109   4.363
10398SOL    HW131437   5.503   4.137   4.407
10398SOL    HW231438   5.558   4.032   4.313
10399SOL     OW31439   6.155   5.024   4.911
10399SOL    HW131440   6.070   5.029   4.868
10399SOL    HW231441   6.172   5.113   4.942
10400SOL     OW31442   0.064   5.267   4.486
10400SOL    HW131443   0.097   5.177   4.485
10400SOL    HW231444   0.037   5.283   4.396
10401SOL     OW31445   6.688   4.442   4.409
10401SOL    HW131446   6.753   4.512   4.402
10401SOL    HW231447   6.657   4.447   4.500
10402SOL     OW31448   6.328   4.860   4.774
10402SOL    HW131449   6.263   4.899   4.833
10402SOL    HW231450   6.369   4.934   4.730
10403SOL     OW31451   6.463   4.484   5.551
10403SOL    HW131452   6.445   4.552   5.616
10403SOL    HW231453   6.484   4.533   5.471
10404SOL     OW31454   6.271   4.719   4.367
10404SOL    HW131455   6.338   4.712   4.435
10404SOL    HW231456   6.203   4.775   4.405
10405SOL     OW31457   6.296   4.869   5.540
10405SOL    HW131458   6.340   4.948   5.571
10405SOL    HW231459   6.215   4.901   5.500
10406SOL     OW31460   5.918   5.139   4.791
10406SOL    HW131461   5.844   5.099   4.746
10406SOL    HW231462   5.962   5.191   4.724
10407SOL     OW31463   6.039   4.114   5.198
10407SOL    HW131464   6.114   4.056   5.209
10407SOL    HW231465   5.963   4.060   5.220
10408SOL     OW31466   5.805   5.441   4.192
10408SOL    HW131467   5.827   5.515   4.248
10408SOL    HW231468   5.880   5.433   4.133
10409SOL     OW31469   6.725   5.074   5.430
10409SOL    HW131470   6.810   5.036   5.409
10409SOL    HW231471   6.667   4.999   5.438
10410SOL     OW31472   5.820   5.170   4.260
10410SOL    HW131473   5.800   5.264   4.261
10410SOL    HW231474   5.762   5.132   4.327
10411SOL     OW31475   5.855   4.815   4.615
10411SOL    HW131476   5.851   4.727   4.652
10411SOL    HW231477   5.797   4.867   4.670
10412SOL     OW31478   6.181   5.521   5.146
10412SOL    HW131479   6.103   5.500   5.197
10412SOL    HW231480   6.208   5.607   5.177
10413SOL     OW31481   6.162   4.709   3.865
10413SOL    HW131482   6.211   4.754   3.796
10413SOL    HW231483   6.202   4.741   3.947
10414SOL     OW31484   5.705   4.381   4.285
10414SOL    HW131485   5.675   4.292   4.307
10414SOL    HW231486   5.696   4.430   4.367
10415SOL     OW31487   5.627   5.313   3.843
10415SOL    HW131488   5.608   5.221   3.863
10415SOL    HW231489   5.600   5.361   3.922
10416SOL     OW31490   5.711   4.469   5.307
10416SOL    HW131491   5.801   4.502   5.310
10416SOL    HW231492   5.657   4.548   5.310
10417SOL     OW31493   6.202   5.117   4.458
10417SOL    HW131494   6.159   5.032   4.466
10417SOL    HW231495   6.186   5.143   4.367
10418SOL     OW31496   6.831   4.943   5.153
10418SOL    HW131497   6.867   4.875   5.096
10418SOL    HW231498   6.894   4.952   5.224
10419SOL     OW31499   6.406   3.732   4.242
10419SOL    HW131500   6.446   3.815   4.215
10419SOL    HW231501   6.312   3.750   4.245
10420SOL     OW31502   5.773   4.684   5.005
10420SOL    HW131503   5.860   4.646   4.990
10420SOL    HW231504   5.716   4.637   4.945
10421SOL     OW31505   6.792   5.541   5.343
10421SOL    HW131506   6.768   5.601   5.273
10421SOL    HW231507   6.784   5.454   5.303
10422SOL     OW31508   5.931   3.974   5.558
10422SOL    HW131509   5.969   4.058   5.582
10422SOL    HW231510   5.838   3.984   5.576
10423SOL     OW31511   6.180   4.439   3.995
10423SOL    HW131512   6.182   4.524   3.951
10423SOL    HW231513   6.115   4.450   4.065
10424SOL     OW31514   6.872   4.044   4.613
10424SOL    HW131515   6.779   4.034   4.634
10424SOL    HW231516   6.918   4.009   4.690
10425SOL     OW31517   6.387   4.340   5.171
10425SOL    HW131518   6.357   4.314   5.259
10425SOL    HW231519   6.350   4.273   5.113
10426SOL     OW31520   6.942   4.191   5.407
10426SOL    HW131521   6.923   4.278   5.442
10426SOL    HW231522   0.037   4.189   5.398
10427SOL     OW31523   6.542   4.610   5.312
10427SOL    HW131524   6.595   4.540   5.273
10427SOL    HW231525   6.494   4.647   5.238
10428SOL     OW31526   6.586   4.138   4.956
10428SOL    HW131527   6.495   4.151   4.983
10428SOL    HW231528   6.580   4.096   4.870
10429SOL     OW31529   6.636   4.426   4.144
10429SOL    HW131530   6.652   4.427   4.239
10429SOL    HW231531   6.554   4.379   4.134
10430SOL     OW31532   5.674   4.546   4.502
10430SOL    HW131533   5.754   4.540   4.554
10430SOL    HW231534   5.629   4.623   4.538
10431SOL     OW31535   5.710   5.598   5.309
10431SOL    HW131536   5.715   5.575   5.401
10431SOL    HW231537   5.626   5.562   5.279
10432SOL     OW31538   6.484   4.074   3.919
10432SOL    HW131539   6.525   4.137   3.860
10432SOL    HW231540   6.486   3.991   3.871
10433SOL     OW31541   6.936   4.857   4.245
10433SOL    HW131542   6.989   4.840   4.167
10433SOL    HW231543   6.885   4.934   4.223
10434SOL     OW31544   6.138   3.899   4.625
10434SOL    HW131545   6.140   3.930   4.715
10434SOL    HW231546   6.137   3.978   4.572
10435SOL     OW31547   6.574   5.176   4.199
10435SOL    HW131548   6.545   5.249   4.144
10435SOL    HW231549   6.541   5.199   4.287
10436SOL     OW31550   5.940   5.539   4.597
10436SOL    HW131551   5.984   5.455   4.602
10436SOL    HW231552   6.008   5.604   4.615
10437SOL     OW31553   6.793   5.286   5.229
10437SOL    HW131554   6.798   5.212   5.290
10437SOL    HW231555   6.754   5.249   5.150
10438SOL     OW31556   5.898   4.685   3.980
10438SOL    HW131557   5.981   4.704   3.936
10438SOL    HW231558   5.870   4.602   3.942
10439SOL     OW31559   6.056   4.990   5.461
10439SOL    HW131560   6.029   4.996   5.369
10439SOL    HW231561   5.974   4.989   5.510
10440SOL     OW31562   6.719   5.495   3.968
10440SOL    HW131563   6.638   5.467   4.012
10440SOL    HW231564   6.728   5.434   3.894
10441SOL     OW31565   5.788   3.993   5.228
10441SOL    HW131566   5.708   4.044   5.236
10441SOL    HW231567   5.766   3.908   5.266
10442SOL     OW31568   6.046   5.461   4.042
10442SOL    HW131569   6.093   5.515   4.105
10442SOL    HW231570   6.115   5.424   3.986
10443SOL     OW31571   5.842   5.514   4.951
10443SOL    HW131572   5.892   5.443   4.992
10443SOL    HW231573   5.834   5.488   4.859
10444SOL     OW31574   6.530   5.423   4.619
10444SOL    HW131575   6.613   5.377   4.629
10444SOL    HW231576   6.483   5.374   4.552
10445SOL     OW31577   5.983   4.417   4.196
10445SOL    HW131578   5.999   4.324   4.210
10445SOL    HW231579   5.890   4.429   4.212
10446SOL     OW31580   6.234   3.839   3.825
10446SOL    HW131581   6.288   3.763   3.846
10446SOL    HW231582   6.178   3.810   3.752
10447SOL     OW31583   6.348   4.002   5.481
10447SOL    HW131584   6.427   3.948   5.478
10447SOL    HW231585   6.299   3.968   5.556
10448SOL     OW31586   6.460   5.253   4.917
10448SOL    HW131587   6.442   5.215   4.831
10448SOL    HW231588   6.528   5.196   4.955
10449SOL     OW31589   6.400   5.112   4.673
10449SOL    HW131590   6.486   5.100   4.631
10449SOL    HW231591   6.339   5.119   4.600
10450SOL     OW31592   6.514   4.232   4.624
10450SOL    HW131593   6.490   4.224   4.532
10450SOL    HW231594   6.544   4.145   4.649
10451SOL     OW31595   6.139   3.787   4.218
10451SOL    HW131596   6.060   3.787   4.272
10451SOL    HW231597   6.130   3.864   4.162
10452SOL     OW31598   6.993   4.849   3.743
10452SOL    HW131599   0.020   4.804   3.823
10452SOL    HW231600   6.926   4.910   3.772
10453SOL     OW31601   5.874   3.772   3.910
10453SOL    HW131602   5.931   3.837   3.868
10453SOL    HW231603   5.934   3.711   3.952
10454SOL     OW31604   6.531   3.974   4.175
10454SOL    HW131605   6.503   4.012   4.092
10454SOL    HW231606   6.626   3.988   4.178
10455SOL     OW31607   6.656   4.390   5.186
10455SOL    HW131608   6.566   4.359   5.184
10455SOL    HW231609   6.709   4.311   5.194
10456SOL     OW31610   6.780   5.302   4.523
10456SOL    HW131611   6.796   5.365   4.453
10456SOL    HW231612   6.866   5.284   4.560
10457SOL     OW31613   6.060   4.879   4.448
10457SOL    HW131614   5.994   4.858   4.515
10457SOL    HW231615   6.014   4.867   4.365
10458SOL     OW31616   6.835   5.520   4.332
10458SOL    HW131617   6.859   5.582   4.264
10458SOL    HW231618   6.768   5.566   4.383
10459SOL     OW31619   6.609   4.255   3.746
10459SOL    HW131620   6.566   4.340   3.732
10459SOL    HW231621   6.671   4.271   3.816
10460SOL     OW31622   5.672   4.278   5.116
10460SOL    HW131623   5.764   4.278   5.090
10460SOL    HW231624   5.665   4.347   5.182
10461SOL     OW31625   6.144   3.953   4.898
10461SOL    HW131626   6.185   3.881   4.946
10461SOL    HW231627   6.052   3.950   4.925
10462SOL     OW31628   6.448   4.175   4.363
10462SOL    HW131629   6.410   4.237   4.301
10462SOL    HW231630   6.472   4.100   4.310
10463SOL     OW31631   6.608   3.774   4.465
10463SOL    HW131632   6.544   3.771   4.395
10463SOL    HW231633   6.583   3.702   4.524
10464SOL     OW31634   6.075   5.148   3.879
10464SOL    HW131635   5.997   5.117   3.927
10464SOL    HW231636   6.077   5.094   3.800
10465SOL     OW31637   6.112   3.985   4.033
10465SOL    HW131638   6.163   3.942   3.964
10465SOL    HW231639   6.084   4.068   3.993
10466SOL     OW31640   6.624   5.074   5.048
10466SOL    HW131641   6.546   5.045   5.097
10466SOL    HW231642   6.697   5.029   5.091
10467SOL     OW31643   6.734   4.950   4.820
10467SOL    HW131644   6.673   4.980   4.887
10467SOL    HW231645   6.694   4.977   4.737
10468SOL     OW31646   6.498   3.819   5.107
10468SOL    HW131647   6.522   3.798   5.017
10468SOL    HW231648   6.578   3.855   5.145
10469SOL     OW31649   6.572   4.839   5.456
10469SOL    HW131650   6.481   4.858   5.478
10469SOL    HW231651   6.567   4.764   5.398
10470SOL     OW31652   6.297   4.787   4.095
10470SOL    HW131653   6.282   4.765   4.187
10470SOL    HW231654   6.372   4.733   4.069
10471SOL     OW31655   6.009   4.544   4.977
10471SOL    HW131656   6.077   4.553   5.044
10471SOL    HW231657   5.974   4.456   4.990
10472SOL     OW31658   6.853   4.095   5.020
10472SOL    HW131659   6.904   4.174   5.038
10472SOL    HW231660   6.767   4.128   4.994
10473SOL     OW31661   5.662   5.298   5.083
10473SOL    HW131662   5.635   5.369   5.025
10473SOL    HW231663   5.757   5.295   5.074
10474SOL     OW31664   5.919   4.846   4.213
10474SOL    HW131665   5.921   4.919   4.152
10474SOL    HW231666   5.918   4.768   4.157
10475SOL     OW31667   6.131   4.254   4.584
10475SOL    HW131668   6.145   4.312   4.509
10475SOL    HW231669   6.199   4.278   4.646
10476SOL     OW31670   6.826   5.091   4.148
10476SOL    HW131671   6.873   5.168   4.181
10476SOL    HW231672   6.734   5.111   4.165
10477SOL     OW31673   6.854   5.206   4.864
10477SOL    HW131674   6.930   5.197   4.921
10477SOL    HW231675   6.818   5.118   4.859
10478SOL     OW31676   5.931   5.255   5.032
10478SOL    HW131677   5.921   5.208   4.949
10478SOL    HW231678   6.026   5.266   5.042
10479SOL     OW31679   6.005   4.471   5.328
10479SOL    HW131680   6.069   4.512   5.271
10479SOL    HW231681   6.040   4.383   5.345
10480SOL     OW31682   6.576   3.848   5.481
10480SOL    HW131683   6.628   3.924   5.457
10480SOL    HW231684   6.631   3.773   5.459
10481SOL     OW31685   6.083   3.761   5.474
10481SOL    HW131686   6.034   3.708   5.411
10481SOL    HW231687   6.026   3.836   5.491
10482SOL     OW31688   6.172   4.598   4.757
10482SOL    HW131689   6.206   4.688   4.759
10482SOL    HW231690   6.114   4.592   4.833
10483SOL     OW31691   6.949   4.572   4.748
10483SOL    HW131692   6.860   4.554   4.719
10483SOL    HW231693   6.983   4.487   4.776
10484SOL     OW31694   6.766   4.259   3.970
10484SOL    HW131695   6.782   4.180   4.023
10484SOL    HW231696   6.731   4.322   4.032
10485SOL     OW31697   5.881   3.920   4.971
10485SOL    HW131698   5.845   3.952   5.054
10485SOL    HW231699   5.864   3.826   4.971
10486SOL     OW31700   5.633   5.036   4.996
10486SOL    HW131701   5.664   4.980   5.067
10486SOL    HW231702   5.638   5.125   5.033
10487SOL     OW31703   6.305   4.353   4.776
10487SOL    HW131704   6.381   4.341   4.719
10487SOL    HW231705   6.275   4.442   4.758
10488SOL     OW31706   5.897   3.784   4.349
10488SOL    HW131707   5.871   3.875   4.369
10488SOL    HW231708   5.904   3.742   4.435
10489SOL     OW31709   0.208   4.185   4.052
10489SOL    HW131710   0.167   4.098   4.055
10489SOL    HW231711   0.189   4.223   4.138
10490SOL     OW31712   6.612   4.482   4.682
10490SOL    HW131713   6.603   4.497   4.776
10490SOL    HW231714   6.588   4.390   4.670
10491SOL     OW31715   6.553   5.295   5.434
10491SOL    HW131716   6.540   5.333   5.347
10491SOL    HW231717   6.603   5.215   5.418
10492SOL     OW31718   5.937   4.641   5.535
10492SOL    HW131719   6.017   4.660   5.583
10492SOL    HW231720   5.964   4.579   5.467
10493SOL     OW31721   6.897   4.537   3.748
10493SOL    HW131722   6.962   4.480   3.789
10493SOL    HW231723   6.938   4.567   3.667
10494SOL     OW31724   6.647   5.059   4.580
10494SOL    HW131725   6.655   4.989   4.515
10494SOL    HW231726   6.698   5.131   4.543
10495SOL     OW31727   5.894   4.534   4.670
10495SOL    HW131728   5.988   4.553   4.663
10495SOL    HW231729   5.891   4.443   4.701
10496SOL     OW31730   5.911   4.256   4.737
10496SOL    HW131731   5.875   4.168   4.725
10496SOL    HW231732   5.988   4.259   4.681
10497SOL     OW31733   6.696   4.084   5.407
10497SOL    HW131734   6.651   4.142   5.469
10497SOL    HW231735   6.787   4.114   5.407
10498SOL     OW31736   6.739   3.914   5.194
10498SOL    HW131737   6.722   3.974   5.267
10498SOL    HW231738   6.784   3.968   5.129
10499SOL     OW31739   5.594   5.039   3.917
10499SOL    HW131740   5.507   5.056   3.882
10499SOL    HW231741   5.589   4.950   3.952
10500SOL     OW31742   5.676   5.504   4.666
10500SOL    HW131743   5.645   5.427   4.619
10500SOL    HW231744   5.765   5.519   4.634
10501SOL     OW31745   6.076   5.298   4.627
10501SOL    HW131746   6.145   5.360   4.651
10501SOL    HW231747   6.119   5.236   4.569
10502SOL     OW31748   6.562   4.508   4.947
10502SOL    HW131749   6.623   4.487   5.018
10502SOL    HW231750   6.479   4.470   4.976
10503SOL     OW31751   5.623   4.275   4.841
10503SOL    HW131752   5.704   4.270   4.791
10503SOL    HW231753   5.651   4.275   4.933
10504SOL     OW31754   5.776   4.248   5.457
10504SOL    HW131755   5.829   4.202   5.391
10504SOL    HW231756   5.742   4.324   5.411
10505SOL     OW31757   6.402   4.293   4.092
10505SOL    HW131758   6.408   4.220   4.031
10505SOL    HW231759   6.328   4.345   4.061
10506SOL     OW31760   5.822   5.272   5.446
10506SOL    HW131761   5.801   5.335   5.515
10506SOL    HW231762   5.831   5.188   5.492
10507SOL     OW31763   6.305   4.170   4.976
10507SOL    HW131764   6.246   4.098   4.954
10507SOL    HW231765   6.295   4.233   4.905
10508SOL     OW31766   6.496   5.409   5.190
10508SOL    HW131767   6.482   5.365   5.106
10508SOL    HW231768   6.487   5.502   5.169
10509SOL     OW31769   6.043   4.215   3.901
10509SOL    HW131770   6.103   4.285   3.927
10509SOL    HW231771   5.958   4.257   3.894
10510SOL     OW31772   5.724   4.868   5.199
10510SOL    HW131773   5.727   4.822   5.283
10510SOL    HW231774   5.742   4.800   5.134
10511SOL     OW31775   6.891   4.765   4.949
10511SOL    HW131776   6.917   4.699   4.884
10511SOL    HW231777   6.835   4.825   4.900
10512SOL     OW31778   6.887   4.591   4.034
10512SOL    HW131779   6.823   4.553   4.095
10512SOL    HW231780   6.853   4.569   3.947
10513SOL     OW31781   6.850   5.478   4.835
10513SOL    HW131782   6.928   5.485   4.780
10513SOL    HW231783   6.840   5.384   4.849
10514SOL     OW31784   5.675   4.988   4.733
10514SOL    HW131785   5.657   5.004   4.826
10514SOL    HW231786   5.603   4.933   4.703
10515SOL     OW31787   6.266   5.396   5.469
10515SOL    HW131788   6.210   5.472   5.453
10515SOL    HW231789   6.341   5.409   5.411
10516SOL     OW31790   6.977   5.310   4.221
10516SOL    HW131791   0.057   5.351   4.189
10516SOL    HW231792   6.921   5.383   4.247
10517SOL     OW31793   5.727   5.520   5.567
10517SOL    HW131794   5.677   5.453   5.613
10517SOL    HW231795   5.774   5.567   5.636
10518SOL     OW31796   6.865   4.643   4.387
10518SOL    HW131797   6.949   4.605   4.413
10518SOL    HW231798   6.889   4.719   4.335
10519SOL     OW31799   6.379   4.998   5.145
10519SOL    HW131800   6.352   5.043   5.225
10519SOL    HW231801   6.308   5.016   5.083
10520SOL     OW31802   6.252   5.354   3.882
10520SOL    HW131803   6.266   5.367   3.788
10520SOL    HW231804   6.199   5.274   3.887
10521SOL     OW31805   5.841   4.035   4.437
10521SOL    HW131806   5.755   4.071   4.415
10521SOL    HW231807   5.841   4.032   4.533
10522SOL     OW31808   6.750   5.322   3.765
10522SOL    HW131809   6.770   5.231   3.743
10522SOL    HW231810   6.688   5.349   3.696
10523SOL     OW31811   6.412   4.730   5.102
10523SOL    HW131812   6.452   4.726   5.014
10523SOL    HW231813   6.403   4.823   5.120
10524SOL     OW31814   6.502   4.635   4.011
10524SOL    HW131815   6.566   4.667   3.947
10524SOL    HW231816   6.549   4.568   4.060
10525SOL     OW31817   5.951   5.029   5.216
10525SOL    HW131818   5.940   5.105   5.160
10525SOL    HW231819   5.874   4.975   5.201
10526SOL     OW31820   6.646   4.832   4.432
10526SOL    HW131821   6.574   4.783   4.470
10526SOL    HW231822   6.710   4.766   4.406
10527SOL     OW31823   6.609   3.966   4.688
10527SOL    HW131824   6.605   3.919   4.605
10527SOL    HW231825   6.605   3.897   4.755
10528SOL     OW31826   6.193   5.212   4.202
10528SOL    HW131827   6.244   5.162   4.139
10528SOL    HW231828   6.116   5.241   4.153
10529SOL     OW31829   5.848   5.064   4.018
10529SOL    HW131830   5.756   5.061   3.992
10529SOL    HW231831   5.848   5.106   4.104
10530SOL     OW31832   5.701   4.760   5.451
10530SOL    HW131833   5.625   4.731   5.501
10530SOL    HW231834   5.775   4.715   5.492
10531SOL     OW31835   6.261   3.920   5.223
10531SOL    HW131836   6.345   3.897   5.183
10531SOL    HW231837   6.285   3.952   5.310
10532SOL     OW31838   5.667   4.050   3.754
10532SOL    HW131839   5.581   4.032   3.716
10532SOL    HW231840   5.697   4.129   3.708
10533SOL     OW31841   5.645   3.877   4.023
10533SOL    HW131842   5.633   3.956   3.970
10533SOL    HW231843   5.731   3.843   3.996
10534SOL     OW31844   6.210   4.552   5.160
10534SOL    HW131845   6.266   4.628   5.146
10534SOL    HW231846   6.270   4.478   5.167
10535SOL     OW31847   6.308   4.281   5.421
10535SOL    HW131848   6.350   4.338   5.485
10535SOL    HW231849   6.321   4.192   5.456
10536SOL     OW31850   6.990   4.985   5.370
10536SOL    HW131851   6.999   4.926   5.445
10536SOL    HW231852   0.071   4.972   5.320
10537SOL     OW31853   5.955   5.466   5.291
10537SOL    HW131854   5.872   5.512   5.276
10537SOL    HW231855   5.929   5.382   5.331
10538SOL     OW31856   6.811   4.042   4.157
10538SOL    HW131857   6.885   3.994   4.120
10538SOL    HW231858   6.847   4.087   4.234
10539SOL     OW31859   6.171   4.456   4.398
10539SOL    HW131860   6.212   4.541   4.384
10539SOL    HW231861   6.107   4.448   4.327
10540SOL     OW31862   6.422   5.094   3.756
10540SOL    HW131863   6.411   5.115   3.849
10540SOL    HW231864   6.456   5.174   3.717
10541SOL     OW31865   6.250   5.505   4.658
10541SOL    HW131866   6.231   5.598   4.643
10541SOL    HW231867   6.346   5.500   4.659
10542SOL     OW31868   6.455   4.696   4.578
10542SOL    HW131869   6.505   4.623   4.614
10542SOL    HW231870   6.415   4.738   4.654
10543SOL     OW31871   6.675   4.704   3.813
10543SOL    HW131872   6.646   4.760   3.741
10543SOL    HW231873   6.745   4.651   3.775
10544SOL     OW31874   5.811   5.022   5.576
10544SOL    HW131875   5.753   4.954   5.542
10544SOL    HW231876   5.783   5.034   5.666
10545SOL     OW31877   5.678   4.952   4.389
10545SOL    HW131878   5.691   4.908   4.473
10545SOL    HW231879   5.744   4.914   4.331
10546SOL     OW31880   6.264   5.136   5.348
10546SOL    HW131881   6.190   5.091   5.389
10546SOL    HW231882   6.267   5.221   5.393
10547SOL     OW31883   6.012   4.156   4.248
10547SOL    HW131884   6.045   4.085   4.192
10547SOL    HW231885   5.963   4.112   4.317
10548SOL     OW31886   5.924   4.285   5.017
10548SOL    HW131887   5.976   4.226   5.071
10548SOL    HW231888   5.939   4.256   4.927
10549SOL     OW31889   6.414   5.305   4.400
10549SOL    HW131890   6.388   5.372   4.336
10549SOL    HW231891   6.340   5.245   4.404
10550SOL     OW31892   6.990   3.941   4.839
10550SOL    HW131893   6.990   3.851   4.874
10550SOL    HW231894   6.944   3.992   4.906
10551SOL     OW31895   6.600   3.738   4.856
10551SOL    HW131896   6.551   3.669   4.812
10551SOL    HW231897   6.690   3.705   4.861
10552SOL     OW31898   6.362   5.058   4.045
10552SOL    HW131899   6.336   4.966   4.052
10552SOL    HW231900   6.443   5.064   4.094
10553SOL     OW31901   6.205   5.282   5.010
10553SOL    HW131902   6.204   5.364   5.059
10553SOL    HW231903   6.294   5.276   4.975
10554SOL     OW31904   6.907   3.812   3.867
10554SOL    HW131905   6.937   3.761   3.791
10554SOL    HW231906   6.835   3.761   3.903
10555SOL     OW31907   5.628   4.788   4.033
10555SOL    HW131908   5.721   4.780   4.014
10555SOL    HW231909   5.600   4.699   4.054
10556SOL     OW31910   6.472   5.391   4.062
10556SOL    HW131911   6.397   5.374   4.004
10556SOL    HW231912   6.441   5.461   4.120
10557SOL     OW31913   5.806   4.347   5.718
10557SOL    HW131914   5.717   4.342   5.754
10557SOL    HW231915   5.795   4.325   5.626
10558SOL     OW31916   5.807   4.016   6.581
10558SOL    HW131917   5.840   3.975   6.661
10558SOL    HW231918   5.720   3.978   6.569
10559SOL     OW31919   5.582   4.110   6.226
10559SOL    HW131920   5.502   4.138   6.269
10559SOL    HW231921   5.557   4.032   6.176
10560SOL     OW31922   6.146   5.006   6.756
10560SOL    HW131923   6.064   5.033   6.715
10560SOL    HW231924   6.171   5.081   6.810
10561SOL     OW31925   0.065   5.267   6.348
10561SOL    HW131926   0.099   5.177   6.345
10561SOL    HW231927   0.037   5.284   6.257
10562SOL     OW31928   6.689   4.441   6.273
10562SOL    HW131929   6.753   4.513   6.267
10562SOL    HW231930   6.657   4.446   6.363
10563SOL     OW31931   6.340   4.860   6.633
10563SOL    HW131932   6.270   4.891   6.691
10563SOL    HW231933   6.371   4.939   6.589
10564SOL     OW31934   6.271   4.719   6.229
10564SOL    HW131935   6.337   4.712   6.298
10564SOL    HW231936   6.203   4.775   6.267
10565SOL     OW31937   5.919   5.132   6.650
10565SOL    HW131938   5.839   5.102   6.608
10565SOL    HW231939   5.959   5.192   6.587
10566SOL     OW31940   5.805   5.441   6.053
10566SOL    HW131941   5.827   5.515   6.110
10566SOL    HW231942   5.880   5.433   5.995
10567SOL     OW31943   5.819   5.170   6.123
10567SOL    HW131944   5.799   5.264   6.125
10567SOL    HW231945   5.762   5.132   6.190
10568SOL     OW31946   5.853   4.817   6.477
10568SOL    HW131947   5.850   4.729   6.516
10568SOL    HW231948   5.799   4.871   6.534
10569SOL     OW31949   6.172   5.560   6.941
10569SOL    HW131950   6.102   5.520   6.993
10569SOL    HW231951   6.207   5.629   6.998
10570SOL     OW31952   6.163   4.709   5.727
10570SOL    HW131953   6.211   4.754   5.658
10570SOL    HW231954   6.202   4.741   5.809
10571SOL     OW31955   0.243   3.920   0.084
10571SOL    HW131956   0.179   3.992   0.085
10571SOL    HW231957   0.193   3.844   0.116
10572SOL     OW31958   5.705   4.381   6.148
10572SOL    HW131959   5.674   4.293   6.169
10572SOL    HW231960   5.697   4.430   6.230
10573SOL     OW31961   5.626   5.313   5.705
10573SOL    HW131962   5.608   5.221   5.725
10573SOL    HW231963   5.600   5.361   5.784
10574SOL     OW31964   6.204   5.116   6.320
10574SOL    HW131965   6.159   5.032   6.330
10574SOL    HW231966   6.186   5.142   6.230
10575SOL     OW31967   6.821   4.913   0.027
10575SOL    HW131968   6.869   4.874   6.954
10575SOL    HW231969   6.888   4.960   0.077
10576SOL     OW31970   6.407   3.732   6.103
10576SOL    HW131971   6.446   3.815   6.077
10576SOL    HW231972   6.313   3.749   6.107
10577SOL     OW31973   5.777   4.702   6.851
10577SOL    HW131974   5.855   4.652   6.831
10577SOL    HW231975   5.704   4.648   6.819
10578SOL     OW31976   6.180   4.439   5.858
10578SOL    HW131977   6.182   4.524   5.814
10578SOL    HW231978   6.114   4.449   5.927
10579SOL     OW31979   6.872   4.049   6.476
10579SOL    HW131980   6.779   4.034   6.491
10579SOL    HW231981   6.915   4.013   6.553
10580SOL     OW31982   6.410   4.308   0.051
10580SOL    HW131983   6.351   4.363   0.102
10580SOL    HW231984   6.354   4.267   6.985
10581SOL     OW31985   6.562   4.102   6.799
10581SOL    HW131986   6.477   4.137   6.826
10581SOL    HW231987   6.543   4.052   6.720
10582SOL     OW31988   6.637   4.426   6.007
10582SOL    HW131989   6.652   4.426   6.102
10582SOL    HW231990   6.554   4.379   5.996
10583SOL     OW31991   5.676   4.545   6.366
10583SOL    HW131992   5.756   4.540   6.417
10583SOL    HW231993   5.630   4.622   6.400
10584SOL     OW31994   5.737   5.577   0.141
10584SOL    HW131995   5.693   5.502   0.180
10584SOL    HW231996   5.691   5.590   0.058
10585SOL     OW31997   6.483   4.075   5.781
10585SOL    HW131998   6.525   4.137   5.721
10585SOL    HW231999   6.482   3.992   5.733
10586SOL     OW32000   6.937   4.857   6.108
10586SOL    HW132001   6.988   4.839   6.029
10586SOL    HW232002   6.885   4.934   6.086
10587SOL     OW32003   6.141   3.900   6.487
10587SOL    HW132004   6.145   3.929   6.578
10587SOL    HW232005   6.138   3.980   6.436
10588SOL     OW32006   6.574   5.176   6.060
10588SOL    HW132007   6.546   5.248   6.004
10588SOL    HW232008   6.539   5.198   6.146
10589SOL     OW32009   5.939   5.539   6.454
10589SOL    HW132010   5.979   5.453   6.465
10589SOL    HW232011   6.009   5.601   6.478
10590SOL     OW32012   5.898   4.685   5.842
10590SOL    HW132013   5.981   4.704   5.798
10590SOL    HW232014   5.870   4.601   5.805
10591SOL     OW32015   6.719   5.495   5.830
10591SOL    HW132016   6.638   5.468   5.873
10591SOL    HW232017   6.728   5.434   5.756
10592SOL     OW32018   6.046   5.462   5.904
10592SOL    HW132019   6.093   5.515   5.968
10592SOL    HW232020   6.115   5.424   5.849
10593SOL     OW32021   5.854   5.524   6.820
10593SOL    HW132022   5.908   5.475   6.883
10593SOL    HW232023   5.806   5.457   6.772
10594SOL     OW32024   6.525   5.425   6.477
10594SOL    HW132025   6.604   5.377   6.501
10594SOL    HW232026   6.484   5.373   6.408
10595SOL     OW32027   5.983   4.417   6.058
10595SOL    HW132028   5.999   4.324   6.072
10595SOL    HW232029   5.890   4.429   6.075
10596SOL     OW32030   6.234   3.839   5.686
10596SOL    HW132031   6.286   3.762   5.709
10596SOL    HW232032   6.179   3.810   5.614
10597SOL     OW32033   6.456   5.244   6.772
10597SOL    HW132034   6.441   5.206   6.685
10597SOL    HW232035   6.473   5.169   6.828
10598SOL     OW32036   6.403   5.111   6.530
10598SOL    HW132037   6.488   5.099   6.487
10598SOL    HW232038   6.341   5.118   6.459
10599SOL     OW32039   6.516   4.234   6.486
10599SOL    HW132040   6.490   4.225   6.394
10599SOL    HW232041   6.548   4.147   6.510
10600SOL     OW32042   6.140   3.787   6.080
10600SOL    HW132043   6.061   3.787   6.134
10600SOL    HW232044   6.130   3.864   6.024
10601SOL     OW32045   6.993   4.849   5.605
10601SOL    HW132046   0.020   4.804   5.685
10601SOL    HW232047   6.925   4.910   5.634
10602SOL     OW32048   5.874   3.773   5.772
10602SOL    HW132049   5.932   3.837   5.732
10602SOL    HW232050   5.933   3.711   5.815
10603SOL     OW32051   6.531   3.974   6.037
10603SOL    HW132052   6.503   4.012   5.954
10603SOL    HW232053   6.625   3.988   6.040
10604SOL     OW32054   6.783   5.296   6.378
10604SOL    HW132055   6.790   5.364   6.311
10604SOL    HW232056   6.872   5.284   6.410
10605SOL     OW32057   6.059   4.878   6.311
10605SOL    HW132058   5.994   4.859   6.378
10605SOL    HW232059   6.014   4.866   6.228
10606SOL     OW32060   6.833   5.519   6.193
10606SOL    HW132061   6.856   5.581   6.124
10606SOL    HW232062   6.766   5.564   6.244
10607SOL     OW32063   6.609   4.255   5.607
10607SOL    HW132064   6.566   4.340   5.594
10607SOL    HW232065   6.671   4.271   5.678
10608SOL     OW32066   6.151   3.945   6.763
10608SOL    HW132067   6.186   3.864   6.800
10608SOL    HW232068   6.058   3.945   6.787
10609SOL     OW32069   6.449   4.177   6.225
10609SOL    HW132070   6.409   4.238   6.163
10609SOL    HW232071   6.472   4.100   6.172
10610SOL     OW32072   6.609   3.771   6.322
10610SOL    HW132073   6.543   3.767   6.253
10610SOL    HW232074   6.583   3.703   6.384
10611SOL     OW32075   6.075   5.148   5.741
10611SOL    HW132076   5.997   5.118   5.789
10611SOL    HW232077   6.076   5.094   5.662
10612SOL     OW32078   6.112   3.986   5.894
10612SOL    HW132079   6.163   3.942   5.826
10612SOL    HW232080   6.084   4.068   5.855
10613SOL     OW32081   0.223   5.298   0.234
10613SOL    HW132082   0.254   5.354   0.163
10613SOL    HW232083   0.299   5.246   0.258
10614SOL     OW32084   6.725   4.943   6.686
10614SOL    HW132085   6.644   4.928   6.735
10614SOL    HW232086   6.695   4.976   6.601
10615SOL     OW32087   6.296   4.787   5.957
10615SOL    HW132088   6.282   4.766   6.049
10615SOL    HW232089   6.372   4.734   5.931
10616SOL     OW32090   6.012   4.540   6.849
10616SOL    HW132091   6.057   4.564   6.930
10616SOL    HW232092   5.978   4.453   6.866
10617SOL     OW32093   6.823   4.133   6.869
10617SOL    HW132094   6.801   4.215   6.914
10617SOL    HW232095   6.743   4.110   6.822
10618SOL     OW32096   5.681   5.292   6.867
10618SOL    HW132097   5.631   5.329   6.940
10618SOL    HW232098   5.768   5.274   6.903
10619SOL     OW32099   5.919   4.846   6.075
10619SOL    HW132100   5.921   4.919   6.014
10619SOL    HW232101   5.918   4.768   6.019
10620SOL     OW32102   6.132   4.254   6.444
10620SOL    HW132103   6.145   4.312   6.369
10620SOL    HW232104   6.201   4.279   6.506
10621SOL     OW32105   6.827   5.091   6.011
10621SOL    HW132106   6.874   5.167   6.044
10621SOL    HW232107   6.734   5.110   6.027
10622SOL     OW32108   6.818   5.202   6.766
10622SOL    HW132109   6.910   5.188   6.789
10622SOL    HW232110   6.785   5.115   6.744
10623SOL     OW32111   5.944   5.215   6.905
10623SOL    HW132112   5.925   5.178   6.819
10623SOL    HW232113   6.033   5.250   6.897
10624SOL     OW32114   6.172   4.597   6.624
10624SOL    HW132115   6.204   4.687   6.623
10624SOL    HW232116   6.116   4.592   6.702
10625SOL     OW32117   6.949   4.568   6.600
10625SOL    HW132118   6.859   4.548   6.571
10625SOL    HW232119   6.982   4.485   6.635
10626SOL     OW32120   6.766   4.259   5.832
10626SOL    HW132121   6.782   4.180   5.884
10626SOL    HW232122   6.731   4.323   5.895
10627SOL     OW32123   5.888   3.927   6.834
10627SOL    HW132124   5.849   3.948   6.918
10627SOL    HW232125   5.877   3.832   6.825
10628SOL     OW32126   5.607   5.027   6.868
10628SOL    HW132127   5.663   4.986   6.934
10628SOL    HW232128   5.637   5.118   6.866
10629SOL     OW32129   6.304   4.350   6.637
10629SOL    HW132130   6.382   4.339   6.582
10629SOL    HW232131   6.277   4.441   6.621
10630SOL     OW32132   5.897   3.786   6.209
10630SOL    HW132133   5.871   3.875   6.230
10630SOL    HW232134   5.904   3.742   6.294
10631SOL     OW32135   0.209   4.184   5.914
10631SOL    HW132136   0.167   4.098   5.916
10631SOL    HW232137   0.189   4.222   6.000
10632SOL     OW32138   6.615   4.481   6.550
10632SOL    HW132139   6.603   4.496   6.644
10632SOL    HW232140   6.589   4.390   6.537
10633SOL     OW32141   6.897   4.538   5.611
10633SOL    HW132142   6.961   4.480   5.651
10633SOL    HW232143   6.937   4.567   5.530
10634SOL     OW32144   6.655   5.056   6.444
10634SOL    HW132145   6.659   4.988   6.377
10634SOL    HW232146   6.701   5.131   6.405
10635SOL     OW32147   5.897   4.533   6.532
10635SOL    HW132148   5.990   4.555   6.526
10635SOL    HW232149   5.896   4.442   6.562
10636SOL     OW32150   5.920   4.257   6.606
10636SOL    HW132151   5.881   4.171   6.590
10636SOL    HW232152   5.995   4.260   6.547
10637SOL     OW32153   6.758   3.951   0.062
10637SOL    HW132154   6.788   4.003   0.137
10637SOL    HW232155   6.772   4.008   6.987
10638SOL     OW32156   5.594   5.039   5.778
10638SOL    HW132157   5.507   5.056   5.743
10638SOL    HW232158   5.589   4.950   5.814
10639SOL     OW32159   5.672   5.514   6.524
10639SOL    HW132160   5.645   5.433   6.480
10639SOL    HW232161   5.765   5.523   6.501
10640SOL     OW32162   6.074   5.299   6.489
10640SOL    HW132163   6.143   5.361   6.514
10640SOL    HW232164   6.118   5.235   6.433
10641SOL     OW32165   6.564   4.513   6.817
10641SOL    HW132166   6.630   4.498   6.885
10641SOL    HW232167   6.481   4.487   6.858
10642SOL     OW32168   5.640   4.280   6.721
10642SOL    HW132169   5.686   4.248   6.643
10642SOL    HW232170   5.710   4.309   6.779
10643SOL     OW32171   6.403   4.294   5.953
10643SOL    HW132172   6.408   4.220   5.893
10643SOL    HW232173   6.328   4.345   5.923
10644SOL     OW32174   6.281   4.181   6.847
10644SOL    HW132175   6.235   4.102   6.819
10644SOL    HW232176   6.278   4.239   6.771
10645SOL     OW32177   6.448   5.386   0.013
10645SOL    HW132178   6.459   5.361   6.921
10645SOL    HW232179   6.522   5.443   0.032
10646SOL     OW32180   6.044   4.215   5.763
10646SOL    HW132181   6.103   4.285   5.789
10646SOL    HW232182   5.958   4.258   5.756
10647SOL     OW32183   5.742   4.870   0.061
10647SOL    HW132184   5.800   4.830   0.125
10647SOL    HW232185   5.750   4.816   6.983
10648SOL     OW32186   6.886   4.743   6.807
10648SOL    HW132187   6.916   4.691   6.733
10648SOL    HW232188   6.835   4.814   6.767
10649SOL     OW32189   6.887   4.590   5.896
10649SOL    HW132190   6.822   4.552   5.956
10649SOL    HW232191   6.854   4.569   5.809
10650SOL     OW32192   6.846   5.471   6.690
10650SOL    HW132193   6.929   5.472   6.642
10650SOL    HW232194   6.836   5.380   6.718
10651SOL     OW32195   5.670   4.985   6.600
10651SOL    HW132196   5.645   4.994   6.692
10651SOL    HW232197   5.603   4.928   6.562
10652SOL     OW32198   6.977   5.310   6.083
10652SOL    HW132199   0.057   5.352   6.051
10652SOL    HW232200   6.921   5.383   6.110
10653SOL     OW32201   6.866   4.643   6.251
10653SOL    HW132202   6.951   4.603   6.272
10653SOL    HW232203   6.889   4.720   6.198
10654SOL     OW32204   6.252   5.354   5.744
10654SOL    HW132205   6.266   5.367   5.650
10654SOL    HW232206   6.199   5.274   5.749
10655SOL     OW32207   5.840   4.037   6.300
10655SOL    HW132208   5.754   4.070   6.276
10655SOL    HW232209   5.840   4.033   6.395
10656SOL     OW32210   6.750   5.322   5.627
10656SOL    HW132211   6.769   5.230   5.607
10656SOL    HW232212   6.689   5.350   5.558
10657SOL     OW32213   6.363   4.746   6.957
10657SOL    HW132214   6.416   4.722   6.881
10657SOL    HW232215   6.411   4.818   6.998
10658SOL     OW32216   6.503   4.635   5.873
10658SOL    HW132217   6.566   4.667   5.809
10658SOL    HW232218   6.550   4.568   5.922
10659SOL     OW32219   6.646   4.832   6.293
10659SOL    HW132220   6.573   4.783   6.331
10659SOL    HW232221   6.709   4.765   6.266
10660SOL     OW32222   6.609   3.964   6.538
10660SOL    HW132223   6.603   3.917   6.455
10660SOL    HW232224   6.610   3.895   6.605
10661SOL     OW32225   6.192   5.212   6.064
10661SOL    HW132226   6.243   5.162   6.000
10661SOL    HW232227   6.114   5.240   6.016
10662SOL     OW32228   5.848   5.065   5.880
10662SOL    HW132229   5.756   5.061   5.854
10662SOL    HW232230   5.847   5.107   5.966
10663SOL     OW32231   6.265   3.901   0.096
10663SOL    HW132232   6.351   3.860   0.090
10663SOL    HW232233   6.283   3.987   0.135
10664SOL     OW32234   5.668   4.050   5.616
10664SOL    HW132235   5.581   4.032   5.580
10664SOL    HW232236   5.697   4.129   5.570
10665SOL     OW32237   5.645   3.877   5.885
10665SOL    HW132238   5.633   3.956   5.832
10665SOL    HW232239   5.731   3.843   5.859
10666SOL     OW32240   5.971   5.456   0.083
10666SOL    HW132241   5.896   5.504   0.116
10666SOL    HW232242   5.972   5.374   0.133
10667SOL     OW32243   6.811   4.042   6.019
10667SOL    HW132244   6.885   3.994   5.982
10667SOL    HW232245   6.847   4.088   6.095
10668SOL     OW32246   6.171   4.457   6.260
10668SOL    HW132247   6.212   4.542   6.246
10668SOL    HW232248   6.107   4.449   6.189
10669SOL     OW32249   6.423   5.093   5.619
10669SOL    HW132250   6.410   5.114   5.711
10669SOL    HW232251   6.455   5.175   5.580
10670SOL     OW32252   6.251   5.504   6.519
10670SOL    HW132253   6.233   5.597   6.504
10670SOL    HW232254   6.346   5.498   6.518
10671SOL     OW32255   6.456   4.695   6.439
10671SOL    HW132256   6.504   4.622   6.478
10671SOL    HW232257   6.417   4.740   6.514
10672SOL     OW32258   6.676   4.706   5.676
10672SOL    HW132259   6.646   4.761   5.604
10672SOL    HW232260   6.745   4.651   5.638
10673SOL     OW32261   5.678   4.950   6.250
10673SOL    HW132262   5.689   4.906   6.335
10673SOL    HW232263   5.745   4.912   6.194
10674SOL     OW32264   6.013   4.156   6.110
10674SOL    HW132265   6.045   4.085   6.055
10674SOL    HW232266   5.963   4.112   6.179
10675SOL     OW32267   5.900   4.277   6.879
10675SOL    HW132268   5.962   4.218   6.922
10675SOL    HW232269   5.916   4.264   6.786
10676SOL     OW32270   6.416   5.301   6.259
10676SOL    HW132271   6.387   5.369   6.198
10676SOL    HW232272   6.340   5.242   6.267
10677SOL     OW32273   6.986   3.951   6.707
10677SOL    HW132274   6.982   3.860   6.736
10677SOL    HW232275   6.931   3.999   6.769
10678SOL     OW32276   6.610   3.750   6.705
10678SOL    HW132277   6.548   3.679   6.692
10678SOL    HW232278   6.695   3.706   6.712
10679SOL     OW32279   6.362   5.058   5.905
10679SOL    HW132280   6.335   4.966   5.914
10679SOL    HW232281   6.443   5.064   5.956
10680SOL     OW32282   6.198   5.294   6.857
10680SOL    HW132283   6.198   5.387   6.880
10680SOL    HW232284   6.286   5.278   6.822
10681SOL     OW32285   6.908   3.812   5.729
10681SOL    HW132286   6.937   3.761   5.653
10681SOL    HW232287   6.836   3.761   5.766
10682SOL     OW32288   5.628   4.788   5.894
10682SOL    HW132289   5.721   4.780   5.876
10682SOL    HW232290   5.600   4.699   5.916
10683SOL     OW32291   6.472   5.392   5.923
10683SOL    HW132292   6.397   5.374   5.866
10683SOL    HW232293   6.441   5.461   5.981
10684SOL     OW32294   5.807   6.233   0.139
10684SOL    HW132295   5.716   6.216   0.164
10684SOL    HW232296   5.812   6.210   0.046
10685SOL     OW32297   5.810   5.871   0.993
10685SOL    HW132298   5.838   5.835   1.077
10685SOL    HW232299   5.721   5.838   0.981
10686SOL     OW32300   5.585   5.977   0.644
10686SOL    HW132301   5.506   6.008   0.689
10686SOL    HW232302   5.558   5.895   0.602
10687SOL     OW32303   6.152   6.878   1.183
10687SOL    HW132304   6.085   6.901   1.118
10687SOL    HW232305   6.107   6.886   1.267
10688SOL     OW32306   0.069   0.129   0.684
10688SOL    HW132307   6.991   0.102   0.732
10688SOL    HW232308   0.107   0.047   0.652
10689SOL     OW32309   6.692   6.305   0.686
10689SOL    HW132310   6.754   6.378   0.680
10689SOL    HW232311   6.660   6.309   0.776
10690SOL     OW32312   6.353   6.750   1.031
10690SOL    HW132313   6.288   6.788   1.091
10690SOL    HW232314   6.342   6.799   0.950
10691SOL     OW32315   6.464   6.347   1.826
10691SOL    HW132316   6.459   6.413   1.895
10691SOL    HW232317   6.487   6.395   1.747
10692SOL     OW32318   6.273   6.577   0.644
10692SOL    HW132319   6.340   6.571   0.712
10692SOL    HW232320   6.204   6.631   0.683
10693SOL     OW32321   6.280   6.732   1.814
10693SOL    HW132322   6.314   6.818   1.840
10693SOL    HW232323   6.218   6.751   1.744
10694SOL     OW32324   5.927   0.003   1.057
10694SOL    HW132325   5.850   6.963   1.016
10694SOL    HW232326   5.967   0.054   0.987
10695SOL     OW32327   6.038   5.977   1.475
10695SOL    HW132328   6.113   5.918   1.485
10695SOL    HW232329   5.963   5.922   1.496
10696SOL     OW32330   5.842   6.678   0.895
10696SOL    HW132331   5.839   6.590   0.931
10696SOL    HW232332   5.786   6.730   0.953
10697SOL     OW32333   6.169   6.541   0.139
10697SOL    HW132334   6.231   6.555   0.067
10697SOL    HW232335   6.207   6.589   0.213
10698SOL     OW32336   5.705   6.238   0.559
10698SOL    HW132337   5.675   6.150   0.583
10698SOL    HW232338   5.697   6.289   0.639
10699SOL     OW32339   5.715   6.331   1.584
10699SOL    HW132340   5.807   6.358   1.586
10699SOL    HW232341   5.666   6.413   1.594
10700SOL     OW32342   6.850   6.792   1.443
10700SOL    HW132343   6.896   6.723   1.395
10700SOL    HW232344   6.910   6.817   1.513
10701SOL     OW32345   6.407   5.597   0.526
10701SOL    HW132346   6.447   5.679   0.498
10701SOL    HW232347   6.313   5.615   0.527
10702SOL     OW32348   5.774   6.547   1.280
10702SOL    HW132349   5.859   6.506   1.263
10702SOL    HW232350   5.713   6.500   1.222
10703SOL     OW32351   5.931   5.835   1.836
10703SOL    HW132352   5.970   5.920   1.860
10703SOL    HW232353   5.837   5.847   1.853
10704SOL     OW32354   6.187   6.295   0.269
10704SOL    HW132355   6.189   6.382   0.229
10704SOL    HW232356   6.124   6.304   0.341
10705SOL     OW32357   6.870   5.908   0.892
10705SOL    HW132358   6.777   5.896   0.913
10705SOL    HW232359   6.916   5.873   0.969
10706SOL     OW32360   6.387   6.200   1.448
10706SOL    HW132361   6.357   6.175   1.536
10706SOL    HW232362   6.351   6.133   1.390
10707SOL     OW32363   6.941   6.056   1.683
10707SOL    HW132364   6.922   6.143   1.718
10707SOL    HW232365   0.036   6.053   1.676
10708SOL     OW32366   6.545   6.473   1.589
10708SOL    HW132367   6.601   6.404   1.552
10708SOL    HW232368   6.495   6.506   1.514
10709SOL     OW32369   6.586   6.000   1.232
10709SOL    HW132370   6.495   6.012   1.260
10709SOL    HW232371   6.580   5.958   1.146
10710SOL     OW32372   6.641   6.289   0.421
10710SOL    HW132373   6.659   6.293   0.515
10710SOL    HW232374   6.556   6.244   0.415
10711SOL     OW32375   5.673   6.408   0.775
10711SOL    HW132376   5.753   6.400   0.827
10711SOL    HW232377   5.626   6.481   0.813
10712SOL     OW32378   6.462   5.938   0.213
10712SOL    HW132379   6.475   6.002   0.142
10712SOL    HW232380   6.495   5.856   0.177
10713SOL     OW32381   6.937   6.722   0.523
10713SOL    HW132382   6.992   6.700   0.448
10713SOL    HW232383   6.890   6.801   0.497
10714SOL     OW32384   6.138   5.761   0.900
10714SOL    HW132385   6.140   5.793   0.990
10714SOL    HW232386   6.137   5.840   0.847
10715SOL     OW32387   5.906   6.534   0.250
10715SOL    HW132388   5.988   6.546   0.203
10715SOL    HW232389   5.877   6.446   0.227
10716SOL     OW32390   5.789   5.854   1.504
10716SOL    HW132391   5.708   5.905   1.511
10716SOL    HW232392   5.766   5.769   1.541
10717SOL     OW32393   5.986   6.277   0.466
10717SOL    HW132394   6.001   6.185   0.485
10717SOL    HW232395   5.893   6.291   0.483
10718SOL     OW32396   6.348   5.864   1.758
10718SOL    HW132397   6.427   5.810   1.754
10718SOL    HW232398   6.299   5.831   1.833
10719SOL     OW32399   6.515   6.093   0.902
10719SOL    HW132400   6.490   6.085   0.810
10719SOL    HW232401   6.545   6.005   0.926
10720SOL     OW32402   6.140   5.656   0.501
10720SOL    HW132403   6.060   5.655   0.553
10720SOL    HW232404   6.128   5.729   0.440
10721SOL     OW32405   6.529   5.835   0.462
10721SOL    HW132406   6.499   5.874   0.380
10721SOL    HW232407   6.624   5.850   0.462
10722SOL     OW32408   6.657   6.253   1.462
10722SOL    HW132409   6.566   6.222   1.461
10722SOL    HW232410   6.709   6.174   1.473
10723SOL     OW32411   6.824   0.096   0.786
10723SOL    HW132412   6.771   0.161   0.739
10723SOL    HW232413   6.827   0.128   0.876
10724SOL     OW32414   6.060   6.714   0.739
10724SOL    HW132415   5.989   6.707   0.803
10724SOL    HW232416   6.016   6.717   0.654
10725SOL     OW32417   6.689   6.191   0.019
10725SOL    HW132418   6.594   6.184   0.026
10725SOL    HW232419   6.721   6.164   0.105
10726SOL     OW32420   5.671   6.140   1.393
10726SOL    HW132421   5.763   6.140   1.366
10726SOL    HW232422   5.666   6.211   1.457
10727SOL     OW32423   6.144   5.815   1.174
10727SOL    HW132424   6.185   5.741   1.219
10727SOL    HW232425   6.052   5.811   1.200
10728SOL     OW32426   6.449   6.038   0.644
10728SOL    HW132427   6.415   6.099   0.579
10728SOL    HW232428   6.472   5.959   0.594
10729SOL     OW32429   6.608   5.634   0.741
10729SOL    HW132430   6.543   5.631   0.670
10729SOL    HW232431   6.582   5.563   0.800
10730SOL     OW32432   6.092   5.847   0.311
10730SOL    HW132433   6.120   5.792   0.238
10730SOL    HW232434   6.069   5.931   0.270
10731SOL     OW32435   6.640   6.889   1.314
10731SOL    HW132436   6.564   6.874   1.370
10731SOL    HW232437   6.715   6.864   1.368
10732SOL     OW32438   6.742   6.774   1.089
10732SOL    HW132439   6.699   6.813   1.165
10732SOL    HW232440   6.675   6.778   1.020
10733SOL     OW32441   6.498   5.681   1.383
10733SOL    HW132442   6.521   5.660   1.293
10733SOL    HW232443   6.578   5.718   1.421
10734SOL     OW32444   6.556   6.700   1.743
10734SOL    HW132445   6.462   6.707   1.757
10734SOL    HW232446   6.565   6.630   1.677
10735SOL     OW32447   6.289   6.638   0.370
10735SOL    HW132448   6.277   6.623   0.464
10735SOL    HW232449   6.365   6.585   0.347
10736SOL     OW32450   6.008   6.405   1.253
10736SOL    HW132451   6.076   6.414   1.320
10736SOL    HW232452   5.973   6.317   1.266
10737SOL     OW32453   6.852   5.957   1.296
10737SOL    HW132454   6.904   6.036   1.314
10737SOL    HW232455   6.766   5.990   1.270
10738SOL     OW32456   5.933   6.702   0.493
10738SOL    HW132457   5.980   6.769   0.443
10738SOL    HW232458   5.934   6.624   0.437
10739SOL     OW32459   6.131   6.116   0.860
10739SOL    HW132460   6.145   6.174   0.785
10739SOL    HW232461   6.200   6.140   0.922
10740SOL     OW32462   6.827   6.953   0.414
10740SOL    HW132463   6.860   0.040   0.433
10740SOL    HW232464   6.735   6.955   0.442
10741SOL     OW32465   6.005   6.330   1.606
10741SOL    HW132466   6.069   6.371   1.547
10741SOL    HW232467   6.041   6.243   1.623
10742SOL     OW32468   6.576   5.710   1.758
10742SOL    HW132469   6.628   5.786   1.734
10742SOL    HW232470   6.631   5.635   1.736
10743SOL     OW32471   6.083   5.623   1.751
10743SOL    HW132472   6.034   5.570   1.687
10743SOL    HW232473   6.026   5.698   1.767
10744SOL     OW32474   6.170   6.455   1.034
10744SOL    HW132475   6.188   6.548   1.028
10744SOL    HW232476   6.111   6.447   1.110
10745SOL     OW32477   6.953   6.431   1.022
10745SOL    HW132478   6.863   6.416   0.993
10745SOL    HW232479   6.984   6.345   1.050
10746SOL     OW32480   6.766   6.104   0.263
10746SOL    HW132481   6.779   6.031   0.324
10746SOL    HW232482   6.731   6.175   0.318
10747SOL     OW32483   5.881   5.782   1.246
10747SOL    HW132484   5.845   5.813   1.329
10747SOL    HW232485   5.864   5.688   1.246
10748SOL     OW32486   5.641   6.897   1.286
10748SOL    HW132487   5.679   6.843   1.356
10748SOL    HW232488   5.632   6.984   1.326
10749SOL     OW32489   6.307   6.213   1.053
10749SOL    HW132490   6.383   6.202   0.996
10749SOL    HW232491   6.276   6.302   1.035
10750SOL     OW32492   5.896   5.651   0.628
10750SOL    HW132493   5.871   5.741   0.649
10750SOL    HW232494   5.904   5.608   0.712
10751SOL     OW32495   0.184   6.009   0.377
10751SOL    HW132496   0.273   5.992   0.409
10751SOL    HW232497   0.155   6.085   0.427
10752SOL     OW32498   6.613   6.342   0.958
10752SOL    HW132499   6.605   6.357   1.052
10752SOL    HW232500   6.589   6.250   0.946
10753SOL     OW32501   5.937   6.506   1.808
10753SOL    HW132502   6.014   6.516   1.864
10753SOL    HW232503   5.964   6.441   1.742
10754SOL     OW32504   6.895   6.425   0.036
10754SOL    HW132505   6.905   6.338   6.998
10754SOL    HW232506   6.909   6.485   6.962
10755SOL     OW32507   5.892   6.394   0.944
10755SOL    HW132508   5.985   6.413   0.935
10755SOL    HW232509   5.889   6.304   0.977
10756SOL     OW32510   5.911   6.118   1.013
10756SOL    HW132511   5.875   6.030   1.001
10756SOL    HW232512   5.988   6.121   0.957
10757SOL     OW32513   6.696   5.946   1.683
10757SOL    HW132514   6.651   6.003   1.745
10757SOL    HW232515   6.786   5.977   1.684
10758SOL     OW32516   6.739   5.776   1.470
10758SOL    HW132517   6.722   5.836   1.543
10758SOL    HW232518   6.784   5.830   1.405
10759SOL     OW32519   6.563   6.368   1.223
10759SOL    HW132520   6.624   6.347   1.294
10759SOL    HW232521   6.480   6.328   1.249
10760SOL     OW32522   5.623   6.137   1.117
10760SOL    HW132523   5.704   6.131   1.066
10760SOL    HW232524   5.652   6.137   1.208
10761SOL     OW32525   5.776   6.109   1.733
10761SOL    HW132526   5.828   6.062   1.667
10761SOL    HW232527   5.742   6.186   1.686
10762SOL     OW32528   6.404   6.156   0.384
10762SOL    HW132529   6.409   6.081   0.325
10762SOL    HW232530   6.329   6.207   0.353
10763SOL     OW32531   6.305   6.031   1.253
10763SOL    HW132532   6.246   5.959   1.231
10763SOL    HW232533   6.295   6.094   1.182
10764SOL     OW32534   6.039   6.083   0.181
10764SOL    HW132535   6.100   6.151   0.210
10764SOL    HW232536   5.953   6.125   0.183
10765SOL     OW32537   5.758   6.731   1.477
10765SOL    HW132538   5.744   6.682   1.558
10765SOL    HW232539   5.764   6.664   1.409
10766SOL     OW32540   6.915   6.617   1.226
10766SOL    HW132541   6.933   6.550   1.161
10766SOL    HW232542   6.853   6.676   1.184
10767SOL     OW32543   6.895   6.452   0.312
10767SOL    HW132544   6.820   6.410   0.354
10767SOL    HW232545   6.885   6.431   0.219
10768SOL     OW32546   5.670   6.859   1.017
10768SOL    HW132547   5.655   6.870   1.111
10768SOL    HW232548   5.598   6.803   0.988
10769SOL     OW32549   6.529   5.685   0.120
10769SOL    HW132550   6.605   5.719   0.074
10769SOL    HW232551   6.564   5.617   0.178
10770SOL     OW32552   6.865   6.510   0.668
10770SOL    HW132553   6.949   6.468   0.685
10770SOL    HW232554   6.886   6.586   0.614
10771SOL     OW32555   6.388   6.839   1.419
10771SOL    HW132556   6.364   6.878   1.503
10771SOL    HW232557   6.319   6.867   1.359
10772SOL     OW32558   5.842   5.902   0.716
10772SOL    HW132559   5.755   5.936   0.693
10772SOL    HW232560   5.841   5.897   0.811
10773SOL     OW32561   6.415   6.576   1.371
10773SOL    HW132562   6.465   6.566   1.290
10773SOL    HW232563   6.411   6.671   1.385
10774SOL     OW32564   6.496   6.491   0.288
10774SOL    HW132565   6.550   6.518   0.214
10774SOL    HW232566   6.552   6.430   0.337
10775SOL     OW32567   5.983   6.896   1.463
10775SOL    HW132568   5.946   6.978   1.497
10775SOL    HW232569   5.916   6.831   1.480
10776SOL     OW32570   6.640   6.711   0.722
10776SOL    HW132571   6.569   6.656   0.754
10776SOL    HW232572   6.707   6.649   0.694
10777SOL     OW32573   6.608   5.826   0.963
10777SOL    HW132574   6.604   5.779   0.880
10777SOL    HW232575   6.604   5.758   1.030
10778SOL     OW32576   5.694   6.608   1.713
10778SOL    HW132577   5.620   6.586   1.771
10778SOL    HW232578   5.771   6.576   1.760
10779SOL     OW32579   6.261   5.782   1.500
10779SOL    HW132580   6.344   5.760   1.459
10779SOL    HW232581   6.285   5.814   1.587
10780SOL     OW32582   5.685   5.909   0.011
10780SOL    HW132583   5.633   5.852   6.956
10780SOL    HW232584   5.717   5.978   6.952
10781SOL     OW32585   5.633   5.755   0.328
10781SOL    HW132586   5.626   5.845   0.294
10781SOL    HW232587   5.701   5.715   0.273
10782SOL     OW32588   6.208   6.411   1.437
10782SOL    HW132589   6.266   6.484   1.418
10782SOL    HW232590   6.267   6.335   1.444
10783SOL     OW32591   6.306   6.144   1.698
10783SOL    HW132592   6.349   6.202   1.761
10783SOL    HW232593   6.321   6.056   1.733
10784SOL     OW32594   0.020   6.859   1.644
10784SOL    HW132595   0.002   6.804   1.720
10784SOL    HW232596   0.102   6.826   1.609
10785SOL     OW32597   6.801   5.899   0.444
10785SOL    HW132598   6.871   5.845   0.408
10785SOL    HW232599   6.841   5.944   0.518
10786SOL     OW32600   6.170   6.318   0.674
10786SOL    HW132601   6.211   6.403   0.662
10786SOL    HW232602   6.107   6.312   0.602
10787SOL     OW32603   6.456   6.553   0.855
10787SOL    HW132604   6.507   6.480   0.888
10787SOL    HW232605   6.427   6.600   0.933
10788SOL     OW32606   6.662   6.562   0.084
10788SOL    HW132607   6.702   6.649   0.073
10788SOL    HW232608   6.734   6.501   0.069
10789SOL     OW32609   5.804   6.918   1.813
10789SOL    HW132610   5.745   6.844   1.828
10789SOL    HW232611   5.810   6.962   1.898
10790SOL     OW32612   5.694   6.826   0.674
10790SOL    HW132613   5.717   6.770   0.748
10790SOL    HW232614   5.745   6.790   0.601
10791SOL     OW32615   6.282   6.971   1.634
10791SOL    HW132616   6.191   6.978   1.664
10791SOL    HW232617   6.303   0.059   1.601
10792SOL     OW32618   6.013   6.019   0.526
10792SOL    HW132619   6.040   5.946   0.470
10792SOL    HW232620   5.963   5.977   0.596
10793SOL     OW32621   5.923   6.147   1.293
10793SOL    HW132622   5.976   6.088   1.347
10793SOL    HW232623   5.939   6.117   1.204
10794SOL     OW32624   6.990   5.802   1.116
10794SOL    HW132625   6.987   5.713   1.150
10794SOL    HW232626   6.944   5.854   1.183
10795SOL     OW32627   6.600   5.600   1.132
10795SOL    HW132628   6.551   5.530   1.088
10795SOL    HW232629   6.689   5.567   1.137
10796SOL     OW32630   6.393   6.882   0.287
10796SOL    HW132631   6.353   6.799   0.313
10796SOL    HW232632   6.402   6.931   0.369
10797SOL     OW32633   5.657   6.646   0.326
10797SOL    HW132634   5.750   6.626   0.320
10797SOL    HW232635   5.615   6.562   0.344
10798SOL     OW32636   5.806   6.209   1.993
10798SOL    HW132637   5.717   6.203   2.029
10798SOL    HW232638   5.796   6.187   1.901
10799SOL     OW32639   5.810   5.871   2.855
10799SOL    HW132640   5.838   5.836   2.939
10799SOL    HW232641   5.721   5.838   2.843
10800SOL     OW32642   5.583   5.971   2.501
10800SOL    HW132643   5.503   5.998   2.545
10800SOL    HW232644   5.558   5.894   2.450
10801SOL     OW32645   6.152   6.878   3.045
10801SOL    HW132646   6.085   6.900   2.980
10801SOL    HW232647   6.107   6.886   3.129
10802SOL     OW32648   0.070   0.128   2.543
10802SOL    HW132649   6.991   0.103   2.590
10802SOL    HW232650   0.109   0.045   2.515
10803SOL     OW32651   6.690   6.305   2.547
10803SOL    HW132652   6.753   6.378   2.540
10803SOL    HW232653   6.659   6.310   2.638
10804SOL     OW32654   6.354   6.752   2.894
10804SOL    HW132655   6.289   6.789   2.953
10804SOL    HW232656   6.342   6.799   2.811
10805SOL     OW32657   6.464   6.347   3.688
10805SOL    HW132658   6.459   6.413   3.757
10805SOL    HW232659   6.487   6.395   3.609
10806SOL     OW32660   6.275   6.579   2.503
10806SOL    HW132661   6.341   6.572   2.572
10806SOL    HW232662   6.205   6.631   2.543
10807SOL     OW32663   6.280   6.732   3.676
10807SOL    HW132664   6.314   6.818   3.703
10807SOL    HW232665   6.218   6.751   3.606
10808SOL     OW32666   5.926   0.004   2.920
10808SOL    HW132667   5.849   6.963   2.879
10808SOL    HW232668   5.967   0.055   2.851
10809SOL     OW32669   6.038   5.977   3.337
10809SOL    HW132670   6.114   5.918   3.347
10809SOL    HW232671   5.963   5.922   3.358
10810SOL     OW32672   5.842   6.678   2.757
10810SOL    HW132673   5.840   6.590   2.793
10810SOL    HW232674   5.786   6.729   2.815
10811SOL     OW32675   6.158   6.565   2.004
10811SOL    HW132676   6.204   6.613   1.935
10811SOL    HW232677   6.199   6.594   2.085
10812SOL     OW32678   5.705   6.241   2.425
10812SOL    HW132679   5.675   6.153   2.447
10812SOL    HW232680   5.696   6.290   2.506
10813SOL     OW32681   5.715   6.331   3.446
10813SOL    HW132682   5.807   6.358   3.448
10813SOL    HW232683   5.666   6.413   3.456
10814SOL     OW32684   6.850   6.793   3.304
10814SOL    HW132685   6.896   6.724   3.256
10814SOL    HW232686   6.910   6.817   3.375
10815SOL     OW32687   6.407   5.594   2.380
10815SOL    HW132688   6.446   5.677   2.354
10815SOL    HW232689   6.313   5.612   2.383
10816SOL     OW32690   5.774   6.547   3.141
10816SOL    HW132691   5.859   6.506   3.125
10816SOL    HW232692   5.713   6.500   3.084
10817SOL     OW32693   5.931   5.835   3.698
10817SOL    HW132694   5.970   5.920   3.721
10817SOL    HW232695   5.837   5.847   3.714
10818SOL     OW32696   6.180   6.297   2.135
10818SOL    HW132697   6.183   6.382   2.090
10818SOL    HW232698   6.115   6.309   2.204
10819SOL     OW32699   6.872   5.906   2.751
10819SOL    HW132700   6.779   5.896   2.772
10819SOL    HW232701   6.918   5.871   2.828
10820SOL     OW32702   6.387   6.200   3.310
10820SOL    HW132703   6.357   6.175   3.398
10820SOL    HW232704   6.351   6.133   3.252
10821SOL     OW32705   6.941   6.055   3.546
10821SOL    HW132706   6.922   6.143   3.579
10821SOL    HW232707   0.036   6.052   3.538
10822SOL     OW32708   6.545   6.473   3.451
10822SOL    HW132709   6.601   6.404   3.414
10822SOL    HW232710   6.495   6.506   3.376
10823SOL     OW32711   6.586   6.000   3.094
10823SOL    HW132712   6.495   6.012   3.121
10823SOL    HW232713   6.580   5.959   3.008
10824SOL     OW32714   6.637   6.287   2.282
10824SOL    HW132715   6.653   6.289   2.377
10824SOL    HW232716   6.555   6.240   2.273
10825SOL     OW32717   5.671   6.409   2.640
10825SOL    HW132718   5.751   6.402   2.691
10825SOL    HW232719   5.624   6.483   2.677
10826SOL     OW32720   6.484   5.936   2.057
10826SOL    HW132721   6.525   5.999   1.998
10826SOL    HW232722   6.485   5.854   2.009
10827SOL     OW32723   6.938   6.720   2.379
10827SOL    HW132724   6.991   6.701   2.302
10827SOL    HW232725   6.889   6.799   2.357
10828SOL     OW32726   6.138   5.760   2.763
10828SOL    HW132727   6.140   5.792   2.853
10828SOL    HW232728   6.137   5.840   2.709
10829SOL     OW32729   5.899   6.550   2.123
10829SOL    HW132730   5.981   6.564   2.077
10829SOL    HW232731   5.867   6.466   2.090
10830SOL     OW32732   5.789   5.855   3.366
10830SOL    HW132733   5.708   5.906   3.372
10830SOL    HW232734   5.766   5.769   3.403
10831SOL     OW32735   5.983   6.279   2.334
10831SOL    HW132736   5.999   6.185   2.348
10831SOL    HW232737   5.889   6.290   2.352
10832SOL     OW32738   6.234   5.701   1.963
10832SOL    HW132739   6.288   5.625   1.984
10832SOL    HW232740   6.178   5.672   1.890
10833SOL     OW32741   6.348   5.864   3.619
10833SOL    HW132742   6.427   5.810   3.616
10833SOL    HW232743   6.299   5.831   3.695
10834SOL     OW32744   6.514   6.093   2.762
10834SOL    HW132745   6.490   6.085   2.670
10834SOL    HW232746   6.545   6.006   2.786
10835SOL     OW32747   6.140   5.649   2.357
10835SOL    HW132748   6.060   5.649   2.409
10835SOL    HW232749   6.130   5.726   2.300
10836SOL     OW32750   6.988   6.714   1.879
10836SOL    HW132751   0.017   6.670   1.959
10836SOL    HW232752   6.936   6.788   1.910
10837SOL     OW32753   5.874   5.634   2.048
10837SOL    HW132754   5.931   5.699   2.006
10837SOL    HW232755   5.934   5.573   2.090
10838SOL     OW32756   6.531   5.835   2.313
10838SOL    HW132757   6.503   5.874   2.230
10838SOL    HW232758   6.626   5.850   2.316
10839SOL     OW32759   6.657   6.253   3.324
10839SOL    HW132760   6.566   6.221   3.323
10839SOL    HW232761   6.710   6.174   3.334
10840SOL     OW32762   6.826   0.098   2.645
10840SOL    HW132763   6.767   0.161   2.602
10840SOL    HW232764   6.829   0.126   2.736
10841SOL     OW32765   6.059   6.712   2.599
10841SOL    HW132766   5.988   6.706   2.663
10841SOL    HW232767   6.013   6.714   2.514
10842SOL     OW32768   6.609   6.116   1.883
10842SOL    HW132769   6.567   6.201   1.869
10842SOL    HW232770   6.672   6.132   1.954
10843SOL     OW32771   5.672   6.140   3.255
10843SOL    HW132772   5.764   6.140   3.228
10843SOL    HW232773   5.666   6.210   3.320
10844SOL     OW32774   6.144   5.815   3.036
10844SOL    HW132775   6.185   5.742   3.083
10844SOL    HW232776   6.052   5.811   3.063
10845SOL     OW32777   6.448   6.037   2.501
10845SOL    HW132778   6.410   6.099   2.439
10845SOL    HW232779   6.472   5.961   2.448
10846SOL     OW32780   6.608   5.636   2.603
10846SOL    HW132781   6.544   5.633   2.533
10846SOL    HW232782   6.583   5.564   2.662
10847SOL     OW32783   6.112   5.847   2.171
10847SOL    HW132784   6.163   5.803   2.102
10847SOL    HW232785   6.084   5.929   2.131
10848SOL     OW32786   6.640   6.889   3.176
10848SOL    HW132787   6.564   6.874   3.232
10848SOL    HW232788   6.716   6.864   3.230
10849SOL     OW32789   6.742   6.775   2.950
10849SOL    HW132790   6.700   6.813   3.027
10849SOL    HW232791   6.674   6.775   2.883
10850SOL     OW32792   6.498   5.681   3.245
10850SOL    HW132793   6.522   5.660   3.155
10850SOL    HW232794   6.578   5.718   3.283
10851SOL     OW32795   6.556   6.700   3.604
10851SOL    HW132796   6.462   6.707   3.619
10851SOL    HW232797   6.565   6.631   3.539
10852SOL     OW32798   6.290   6.644   2.229
10852SOL    HW132799   6.280   6.631   2.323
10852SOL    HW232800   6.368   6.593   2.206
10853SOL     OW32801   6.007   6.405   3.116
10853SOL    HW132802   6.075   6.414   3.182
10853SOL    HW232803   5.972   6.317   3.128
10854SOL     OW32804   6.852   5.957   3.159
10854SOL    HW132805   6.904   6.036   3.176
10854SOL    HW232806   6.767   5.990   3.132
10855SOL     OW32807   5.918   6.708   2.359
10855SOL    HW132808   5.969   6.774   2.311
10855SOL    HW232809   5.910   6.635   2.298
10856SOL     OW32810   6.131   6.117   2.723
10856SOL    HW132811   6.145   6.175   2.648
10856SOL    HW232812   6.200   6.140   2.784
10857SOL     OW32813   6.818   6.955   2.285
10857SOL    HW132814   6.847   0.036   2.328
10857SOL    HW232815   6.725   6.949   2.305
10858SOL     OW32816   6.005   6.330   3.468
10858SOL    HW132817   6.069   6.371   3.409
10858SOL    HW232818   6.041   6.243   3.485
10859SOL     OW32819   6.576   5.710   3.620
10859SOL    HW132820   6.628   5.786   3.596
10859SOL    HW232821   6.631   5.635   3.597
10860SOL     OW32822   6.083   5.623   3.613
10860SOL    HW132823   6.034   5.570   3.549
10860SOL    HW232824   6.026   5.698   3.629
10861SOL     OW32825   6.171   6.454   2.897
10861SOL    HW132826   6.188   6.548   2.889
10861SOL    HW232827   6.111   6.447   2.972
10862SOL     OW32828   6.952   6.431   2.885
10862SOL    HW132829   6.862   6.416   2.856
10862SOL    HW232830   6.984   6.346   2.912
10863SOL     OW32831   6.766   6.119   2.108
10863SOL    HW132832   6.781   6.041   2.161
10863SOL    HW232833   6.731   6.184   2.170
10864SOL     OW32834   5.881   5.782   3.109
10864SOL    HW132835   5.845   5.813   3.192
10864SOL    HW232836   5.864   5.688   3.109
10865SOL     OW32837   5.640   6.897   3.148
10865SOL    HW132838   5.679   6.843   3.217
10865SOL    HW232839   5.632   6.984   3.188
10866SOL     OW32840   6.307   6.213   2.915
10866SOL    HW132841   6.383   6.202   2.857
10866SOL    HW232842   6.276   6.302   2.897
10867SOL     OW32843   5.897   5.646   2.487
10867SOL    HW132844   5.871   5.736   2.507
10867SOL    HW232845   5.904   5.604   2.572
10868SOL     OW32846   0.209   6.045   2.191
10868SOL    HW132847   0.166   5.959   2.194
10868SOL    HW232848   0.190   6.084   2.276
10869SOL     OW32849   6.613   6.342   2.819
10869SOL    HW132850   6.605   6.357   2.914
10869SOL    HW232851   6.589   6.251   2.807
10870SOL     OW32852   5.937   6.506   3.669
10870SOL    HW132853   6.014   6.516   3.726
10870SOL    HW232854   5.964   6.441   3.604
10871SOL     OW32855   6.898   6.400   1.886
10871SOL    HW132856   6.965   6.344   1.926
10871SOL    HW232857   6.942   6.443   1.813
10872SOL     OW32858   5.892   6.395   2.806
10872SOL    HW132859   5.985   6.413   2.793
10872SOL    HW232860   5.889   6.305   2.838
10873SOL     OW32861   5.910   6.118   2.875
10873SOL    HW132862   5.875   6.030   2.863
10873SOL    HW232863   5.988   6.121   2.819
10874SOL     OW32864   6.696   5.946   3.546
10874SOL    HW132865   6.651   6.003   3.608
10874SOL    HW232866   6.786   5.977   3.546
10875SOL     OW32867   6.739   5.776   3.333
10875SOL    HW132868   6.723   5.836   3.406
10875SOL    HW232869   6.784   5.830   3.267
10876SOL     OW32870   5.618   6.893   2.034
10876SOL    HW132871   5.531   6.919   2.005
10876SOL    HW232872   5.604   6.811   2.082
10877SOL     OW32873   6.563   6.369   3.085
10877SOL    HW132874   6.623   6.347   3.156
10877SOL    HW232875   6.480   6.327   3.110
10878SOL     OW32876   5.623   6.137   2.979
10878SOL    HW132877   5.704   6.131   2.928
10878SOL    HW232878   5.652   6.137   3.070
10879SOL     OW32879   5.776   6.109   3.595
10879SOL    HW132880   5.828   6.063   3.529
10879SOL    HW232881   5.742   6.186   3.548
10880SOL     OW32882   6.403   6.154   2.231
10880SOL    HW132883   6.409   6.081   2.169
10880SOL    HW232884   6.328   6.206   2.200
10881SOL     OW32885   6.305   6.031   3.115
10881SOL    HW132886   6.245   5.959   3.092
10881SOL    HW232887   6.295   6.094   3.044
10882SOL     OW32888   6.043   6.076   2.039
10882SOL    HW132889   6.103   6.145   2.065
10882SOL    HW232890   5.958   6.119   2.032
10883SOL     OW32891   5.758   6.731   3.339
10883SOL    HW132892   5.744   6.682   3.420
10883SOL    HW232893   5.764   6.664   3.271
10884SOL     OW32894   6.915   6.618   3.089
10884SOL    HW132895   6.933   6.550   3.023
10884SOL    HW232896   6.853   6.677   3.046
10885SOL     OW32897   6.887   6.452   2.171
10885SOL    HW132898   6.823   6.415   2.231
10885SOL    HW232899   6.855   6.431   2.083
10886SOL     OW32900   5.669   6.859   2.879
10886SOL    HW132901   5.654   6.870   2.973
10886SOL    HW232902   5.598   6.803   2.849
10887SOL     OW32903   6.865   6.509   2.526
10887SOL    HW132904   6.949   6.469   2.548
10887SOL    HW232905   6.887   6.584   2.472
10888SOL     OW32906   6.388   6.839   3.280
10888SOL    HW132907   6.364   6.878   3.364
10888SOL    HW232908   6.319   6.866   3.221
10889SOL     OW32909   5.841   5.897   2.576
10889SOL    HW132910   5.755   5.932   2.553
10889SOL    HW232911   5.841   5.894   2.671
10890SOL     OW32912   6.829   0.198   1.902
10890SOL    HW132913   6.836   0.114   1.948
10890SOL    HW232914   6.744   0.195   1.859
10891SOL     OW32915   6.415   6.576   3.233
10891SOL    HW132916   6.465   6.565   3.152
10891SOL    HW232917   6.411   6.671   3.247
10892SOL     OW32918   6.500   6.495   2.150
10892SOL    HW132919   6.563   6.526   2.085
10892SOL    HW232920   6.547   6.429   2.200
10893SOL     OW32921   5.983   6.896   3.325
10893SOL    HW132922   5.946   6.978   3.360
10893SOL    HW232923   5.916   6.830   3.342
10894SOL     OW32924   6.642   6.711   2.586
10894SOL    HW132925   6.570   6.656   2.616
10894SOL    HW232926   6.709   6.649   2.557
10895SOL     OW32927   6.609   5.827   2.826
10895SOL    HW132928   6.605   5.780   2.743
10895SOL    HW232929   6.605   5.759   2.893
10896SOL     OW32930   5.694   6.608   3.575
10896SOL    HW132931   5.620   6.587   3.633
10896SOL    HW232932   5.771   6.577   3.622
10897SOL     OW32933   6.261   5.782   3.362
10897SOL    HW132934   6.345   5.760   3.321
10897SOL    HW232935   6.285   5.814   3.449
10898SOL     OW32936   5.667   5.912   1.892
10898SOL    HW132937   5.581   5.893   1.854
10898SOL    HW232938   5.697   5.991   1.846
10899SOL     OW32939   5.645   5.739   2.161
10899SOL    HW132940   5.633   5.818   2.108
10899SOL    HW232941   5.731   5.706   2.134
10900SOL     OW32942   6.208   6.410   3.299
10900SOL    HW132943   6.266   6.484   3.280
10900SOL    HW232944   6.267   6.335   3.306
10901SOL     OW32945   6.306   6.144   3.560
10901SOL    HW132946   6.349   6.202   3.623
10901SOL    HW232947   6.321   6.056   3.595
10902SOL     OW32948   0.020   6.859   3.506
10902SOL    HW132949   0.002   6.803   3.582
10902SOL    HW232950   0.102   6.825   3.471
10903SOL     OW32951   6.811   5.903   2.296
10903SOL    HW132952   6.885   5.856   2.259
10903SOL    HW232953   6.847   5.949   2.372
10904SOL     OW32954   6.169   6.320   2.538
10904SOL    HW132955   6.212   6.404   2.523
10904SOL    HW232956   6.106   6.311   2.466
10905SOL     OW32957   6.455   6.554   2.717
10905SOL    HW132958   6.506   6.480   2.749
10905SOL    HW232959   6.427   6.601   2.795
10906SOL     OW32960   6.669   6.560   1.951
10906SOL    HW132961   6.643   6.622   1.882
10906SOL    HW232962   6.744   6.513   1.913
10907SOL     OW32963   5.803   6.919   3.674
10907SOL    HW132964   5.745   6.845   3.690
10907SOL    HW232965   5.810   6.963   3.759
10908SOL     OW32966   5.692   6.822   2.535
10908SOL    HW132967   5.715   6.767   2.610
10908SOL    HW232968   5.749   6.792   2.464
10909SOL     OW32969   6.281   6.971   3.495
10909SOL    HW132970   6.191   6.978   3.526
10909SOL    HW232971   6.303   0.059   3.464
10910SOL     OW32972   6.013   6.017   2.386
10910SOL    HW132973   6.045   5.947   2.330
10910SOL    HW232974   5.963   5.973   2.455
10911SOL     OW32975   5.923   6.147   3.155
10911SOL    HW132976   5.976   6.088   3.209
10911SOL    HW232977   5.939   6.118   3.065
10912SOL     OW32978   6.990   5.803   2.978
10912SOL    HW132979   6.989   5.713   3.012
10912SOL    HW232980   6.944   5.854   3.044
10913SOL     OW32981   6.600   5.600   2.994
10913SOL    HW132982   6.551   5.530   2.950
10913SOL    HW232983   6.690   5.567   2.999
10914SOL     OW32984   6.334   6.908   2.125
10914SOL    HW132985   6.316   6.817   2.149
10914SOL    HW232986   6.373   6.946   2.204
10915SOL     OW32987   6.907   5.674   2.005
10915SOL    HW132988   6.936   5.623   1.929
10915SOL    HW232989   6.835   5.623   2.042
10916SOL     OW32990   5.623   6.647   2.174
10916SOL    HW132991   5.716   6.644   2.154
10916SOL    HW232992   5.600   6.557   2.196
10917SOL     OW32993   5.806   6.209   3.855
10917SOL    HW132994   5.717   6.203   3.891
10917SOL    HW232995   5.796   6.187   3.763
10918SOL     OW32996   5.810   5.871   4.717
10918SOL    HW132997   5.838   5.835   4.801
10918SOL    HW232998   5.721   5.838   4.705
10919SOL     OW32999   5.583   5.971   4.363
10919SOL    HW133000   5.503   5.998   4.407
10919SOL    HW233001   5.558   5.894   4.312
10920SOL     OW33002   6.151   6.878   4.908
10920SOL    HW133003   6.085   6.901   4.843
10920SOL    HW233004   6.106   6.885   4.992
10921SOL     OW33005   0.070   0.128   4.405
10921SOL    HW133006   6.991   0.103   4.452
10921SOL    HW233007   0.109   0.045   4.377
10922SOL     OW33008   6.690   6.305   4.409
10922SOL    HW133009   6.753   6.378   4.402
10922SOL    HW233010   6.659   6.310   4.500
10923SOL     OW33011   6.354   6.752   4.756
10923SOL    HW133012   6.289   6.789   4.815
10923SOL    HW233013   6.341   6.799   4.674
10924SOL     OW33014   6.464   6.347   5.550
10924SOL    HW133015   6.458   6.414   5.619
10924SOL    HW233016   6.487   6.395   5.471
10925SOL     OW33017   6.275   6.579   4.365
10925SOL    HW133018   6.341   6.572   4.434
10925SOL    HW233019   6.205   6.631   4.405
10926SOL     OW33020   6.280   6.732   5.538
10926SOL    HW133021   6.314   6.818   5.564
10926SOL    HW233022   6.218   6.751   5.468
10927SOL     OW33023   5.927   0.003   4.782
10927SOL    HW133024   5.850   6.963   4.741
10927SOL    HW233025   5.967   0.055   4.712
10928SOL     OW33026   6.038   5.976   5.199
10928SOL    HW133027   6.114   5.918   5.209
10928SOL    HW233028   5.963   5.922   5.220
10929SOL     OW33029   5.842   6.678   4.619
10929SOL    HW133030   5.840   6.590   4.655
10929SOL    HW233031   5.786   6.730   4.677
10930SOL     OW33032   6.158   6.565   3.866
10930SOL    HW133033   6.204   6.613   3.797
10930SOL    HW233034   6.199   6.594   3.947
10931SOL     OW33035   5.705   6.241   4.287
10931SOL    HW133036   5.675   6.153   4.309
10931SOL    HW233037   5.696   6.291   4.368
10932SOL     OW33038   5.715   6.332   5.307
10932SOL    HW133039   5.807   6.358   5.310
10932SOL    HW233040   5.666   6.413   5.318
10933SOL     OW33041   6.850   6.793   5.167
10933SOL    HW133042   6.896   6.724   5.119
10933SOL    HW233043   6.910   6.817   5.237
10934SOL     OW33044   6.406   5.594   4.242
10934SOL    HW133045   6.446   5.677   4.216
10934SOL    HW233046   6.313   5.612   4.245
10935SOL     OW33047   5.774   6.547   5.003
10935SOL    HW133048   5.859   6.506   4.987
10935SOL    HW233049   5.713   6.500   4.946
10936SOL     OW33050   5.931   5.836   5.559
10936SOL    HW133051   5.970   5.920   5.583
10936SOL    HW233052   5.838   5.846   5.576
10937SOL     OW33053   6.180   6.297   3.997
10937SOL    HW133054   6.183   6.382   3.952
10937SOL    HW233055   6.115   6.309   4.066
10938SOL     OW33056   6.872   5.906   4.613
10938SOL    HW133057   6.779   5.896   4.634
10938SOL    HW233058   6.918   5.871   4.690
10939SOL     OW33059   6.387   6.200   5.172
10939SOL    HW133060   6.357   6.175   5.260
10939SOL    HW233061   6.351   6.133   5.114
10940SOL     OW33062   6.941   6.055   5.407
10940SOL    HW133063   6.922   6.143   5.441
10940SOL    HW233064   0.036   6.052   5.399
10941SOL     OW33065   6.545   6.473   5.313
10941SOL    HW133066   6.601   6.404   5.276
10941SOL    HW233067   6.495   6.506   5.238
10942SOL     OW33068   6.586   6.000   4.956
10942SOL    HW133069   6.495   6.012   4.983
10942SOL    HW233070   6.580   5.959   4.870
10943SOL     OW33071   6.637   6.288   4.144
10943SOL    HW133072   6.653   6.289   4.239
10943SOL    HW233073   6.555   6.240   4.135
10944SOL     OW33074   5.671   6.409   4.501
10944SOL    HW133075   5.751   6.402   4.553
10944SOL    HW233076   5.624   6.483   4.539
10945SOL     OW33077   6.484   5.936   3.919
10945SOL    HW133078   6.525   5.999   3.860
10945SOL    HW233079   6.486   5.853   3.871
10946SOL     OW33080   6.938   6.720   4.241
10946SOL    HW133081   6.991   6.701   4.164
10946SOL    HW233082   6.889   6.799   4.219
10947SOL     OW33083   6.138   5.760   4.625
10947SOL    HW133084   6.140   5.792   4.715
10947SOL    HW233085   6.137   5.840   4.571
10948SOL     OW33086   5.898   6.550   3.985
10948SOL    HW133087   5.981   6.564   3.939
10948SOL    HW233088   5.867   6.465   3.952
10949SOL     OW33089   5.789   5.855   5.228
10949SOL    HW133090   5.708   5.906   5.235
10949SOL    HW233091   5.766   5.769   5.265
10950SOL     OW33092   5.983   6.279   4.196
10950SOL    HW133093   5.999   6.186   4.210
10950SOL    HW233094   5.889   6.290   4.214
10951SOL     OW33095   6.234   5.701   3.825
10951SOL    HW133096   6.288   5.625   3.846
10951SOL    HW233097   6.178   5.672   3.752
10952SOL     OW33098   6.348   5.864   5.481
10952SOL    HW133099   6.427   5.810   5.478
10952SOL    HW233100   6.299   5.830   5.557
10953SOL     OW33101   6.515   6.093   4.624
10953SOL    HW133102   6.490   6.085   4.532
10953SOL    HW233103   6.545   6.006   4.648
10954SOL     OW33104   6.140   5.649   4.219
10954SOL    HW133105   6.060   5.649   4.272
10954SOL    HW233106   6.130   5.726   4.162
10955SOL     OW33107   6.988   6.714   3.741
10955SOL    HW133108   0.017   6.670   3.821
10955SOL    HW233109   6.937   6.789   3.772
10956SOL     OW33110   5.874   5.634   3.910
10956SOL    HW133111   5.931   5.699   3.868
10956SOL    HW233112   5.934   5.573   3.952
10957SOL     OW33113   6.531   5.835   4.175
10957SOL    HW133114   6.503   5.874   4.092
10957SOL    HW233115   6.626   5.850   4.178
10958SOL     OW33116   6.657   6.253   5.186
10958SOL    HW133117   6.566   6.222   5.185
10958SOL    HW233118   6.709   6.174   5.196
10959SOL     OW33119   6.826   0.099   4.507
10959SOL    HW133120   6.767   0.161   4.465
10959SOL    HW233121   6.829   0.125   4.598
10960SOL     OW33122   6.059   6.712   4.461
10960SOL    HW133123   5.988   6.706   4.525
10960SOL    HW233124   6.013   6.714   4.376
10961SOL     OW33125   6.609   6.116   3.746
10961SOL    HW133126   6.567   6.201   3.731
10961SOL    HW233127   6.672   6.132   3.816
10962SOL     OW33128   5.671   6.141   5.116
10962SOL    HW133129   5.763   6.140   5.090
10962SOL    HW233130   5.666   6.211   5.181
10963SOL     OW33131   6.144   5.815   4.898
10963SOL    HW133132   6.185   5.742   4.945
10963SOL    HW233133   6.052   5.811   4.925
10964SOL     OW33134   6.448   6.037   4.363
10964SOL    HW133135   6.410   6.099   4.301
10964SOL    HW233136   6.472   5.961   4.310
10965SOL     OW33137   6.608   5.636   4.465
10965SOL    HW133138   6.544   5.633   4.395
10965SOL    HW233139   6.583   5.564   4.524
10966SOL     OW33140   6.112   5.847   4.033
10966SOL    HW133141   6.163   5.803   3.964
10966SOL    HW233142   6.084   5.929   3.993
10967SOL     OW33143   6.640   6.889   5.038
10967SOL    HW133144   6.564   6.874   5.094
10967SOL    HW233145   6.715   6.864   5.092
10968SOL     OW33146   6.742   6.775   4.812
10968SOL    HW133147   6.700   6.813   4.889
10968SOL    HW233148   6.674   6.775   4.745
10969SOL     OW33149   6.498   5.681   5.107
10969SOL    HW133150   6.522   5.660   5.017
10969SOL    HW233151   6.578   5.718   5.145
10970SOL     OW33152   6.556   6.700   5.467
10970SOL    HW133153   6.462   6.707   5.482
10970SOL    HW233154   6.565   6.630   5.402
10971SOL     OW33155   6.290   6.644   4.091
10971SOL    HW133156   6.280   6.631   4.185
10971SOL    HW233157   6.368   6.594   4.068
10972SOL     OW33158   6.008   6.405   4.977
10972SOL    HW133159   6.075   6.414   5.044
10972SOL    HW233160   5.972   6.317   4.990
10973SOL     OW33161   6.852   5.957   5.021
10973SOL    HW133162   6.904   6.036   5.038
10973SOL    HW233163   6.767   5.990   4.994
10974SOL     OW33164   5.918   6.708   4.221
10974SOL    HW133165   5.970   6.773   4.173
10974SOL    HW233166   5.910   6.635   4.160
10975SOL     OW33167   6.131   6.117   4.585
10975SOL    HW133168   6.145   6.175   4.510
10975SOL    HW233169   6.200   6.140   4.646
10976SOL     OW33170   6.818   6.955   4.147
10976SOL    HW133171   6.847   0.036   4.190
10976SOL    HW233172   6.725   6.949   4.167
10977SOL     OW33173   6.005   6.330   5.330
10977SOL    HW133174   6.069   6.371   5.271
10977SOL    HW233175   6.041   6.243   5.347
10978SOL     OW33176   6.576   5.710   5.481
10978SOL    HW133177   6.628   5.786   5.457
10978SOL    HW233178   6.631   5.635   5.459
10979SOL     OW33179   6.083   5.623   5.474
10979SOL    HW133180   6.034   5.570   5.411
10979SOL    HW233181   6.026   5.698   5.491
10980SOL     OW33182   6.171   6.454   4.759
10980SOL    HW133183   6.188   6.548   4.751
10980SOL    HW233184   6.111   6.447   4.834
10981SOL     OW33185   6.952   6.431   4.747
10981SOL    HW133186   6.862   6.416   4.718
10981SOL    HW233187   6.984   6.346   4.774
10982SOL     OW33188   6.766   6.119   3.970
10982SOL    HW133189   6.781   6.041   4.023
10982SOL    HW233190   6.731   6.184   4.032
10983SOL     OW33191   5.881   5.782   4.971
10983SOL    HW133192   5.845   5.813   5.054
10983SOL    HW233193   5.864   5.688   4.971
10984SOL     OW33194   5.641   6.898   5.011
10984SOL    HW133195   5.680   6.843   5.079
10984SOL    HW233196   5.632   6.984   5.051
10985SOL     OW33197   6.307   6.213   4.777
10985SOL    HW133198   6.383   6.202   4.719
10985SOL    HW233199   6.276   6.302   4.759
10986SOL     OW33200   5.897   5.646   4.349
10986SOL    HW133201   5.871   5.737   4.369
10986SOL    HW233202   5.904   5.604   4.434
10987SOL     OW33203   0.209   6.045   4.053
10987SOL    HW133204   0.166   5.959   4.056
10987SOL    HW233205   0.190   6.084   4.138
10988SOL     OW33206   6.613   6.343   4.681
10988SOL    HW133207   6.605   6.357   4.776
10988SOL    HW233208   6.589   6.251   4.669
10989SOL     OW33209   5.938   6.506   5.531
10989SOL    HW133210   6.014   6.516   5.588
10989SOL    HW233211   5.964   6.441   5.466
10990SOL     OW33212   6.898   6.400   3.748
10990SOL    HW133213   6.965   6.344   3.788
10990SOL    HW233214   6.942   6.443   3.675
10991SOL     OW33215   5.892   6.395   4.668
10991SOL    HW133216   5.985   6.413   4.655
10991SOL    HW233217   5.889   6.305   4.700
10992SOL     OW33218   5.910   6.118   4.737
10992SOL    HW133219   5.875   6.030   4.725
10992SOL    HW233220   5.988   6.121   4.681
10993SOL     OW33221   6.696   5.946   5.407
10993SOL    HW133222   6.651   6.003   5.469
10993SOL    HW233223   6.787   5.977   5.408
10994SOL     OW33224   6.739   5.776   5.195
10994SOL    HW133225   6.722   5.836   5.267
10994SOL    HW233226   6.784   5.830   5.129
10995SOL     OW33227   5.618   6.893   3.896
10995SOL    HW133228   5.531   6.919   3.867
10995SOL    HW233229   5.604   6.811   3.944
10996SOL     OW33230   6.563   6.369   4.947
10996SOL    HW133231   6.623   6.347   5.018
10996SOL    HW233232   6.480   6.327   4.972
10997SOL     OW33233   5.623   6.137   4.841
10997SOL    HW133234   5.704   6.131   4.791
10997SOL    HW233235   5.652   6.137   4.932
10998SOL     OW33236   5.776   6.109   5.457
10998SOL    HW133237   5.828   6.063   5.391
10998SOL    HW233238   5.742   6.186   5.410
10999SOL     OW33239   6.403   6.154   4.093
10999SOL    HW133240   6.409   6.081   4.031
10999SOL    HW233241   6.328   6.205   4.062
11000SOL     OW33242   6.305   6.031   4.977
11000SOL    HW133243   6.245   5.959   4.954
11000SOL    HW233244   6.295   6.094   4.905
11001SOL     OW33245   6.043   6.076   3.901
11001SOL    HW133246   6.103   6.145   3.927
11001SOL    HW233247   5.958   6.119   3.894
11002SOL     OW33248   5.759   6.731   5.201
11002SOL    HW133249   5.744   6.682   5.282
11002SOL    HW233250   5.764   6.664   5.133
11003SOL     OW33251   6.915   6.618   4.951
11003SOL    HW133252   6.933   6.550   4.885
11003SOL    HW233253   6.853   6.677   4.908
11004SOL     OW33254   6.887   6.452   4.033
11004SOL    HW133255   6.823   6.415   4.092
11004SOL    HW233256   6.855   6.431   3.945
11005SOL     OW33257   5.669   6.860   4.741
11005SOL    HW133258   5.655   6.870   4.835
11005SOL    HW233259   5.598   6.803   4.712
11006SOL     OW33260   6.865   6.509   4.388
11006SOL    HW133261   6.949   6.469   4.410
11006SOL    HW233262   6.887   6.584   4.334
11007SOL     OW33263   6.388   6.839   5.142
11007SOL    HW133264   6.364   6.878   5.226
11007SOL    HW233265   6.319   6.867   5.082
11008SOL     OW33266   5.841   5.897   4.438
11008SOL    HW133267   5.755   5.932   4.415
11008SOL    HW233268   5.841   5.894   4.533
11009SOL     OW33269   6.829   0.199   3.764
11009SOL    HW133270   6.837   0.115   3.810
11009SOL    HW233271   6.744   0.194   3.720
11010SOL     OW33272   6.415   6.576   5.095
11010SOL    HW133273   6.465   6.566   5.014
11010SOL    HW233274   6.411   6.671   5.109
11011SOL     OW33275   6.500   6.495   4.012
11011SOL    HW133276   6.563   6.526   3.947
11011SOL    HW233277   6.547   6.429   4.062
11012SOL     OW33278   5.983   6.897   5.185
11012SOL    HW133279   5.947   6.977   5.223
11012SOL    HW233280   5.916   6.831   5.202
11013SOL     OW33281   6.642   6.711   4.447
11013SOL    HW133282   6.570   6.656   4.478
11013SOL    HW233283   6.709   6.649   4.419
11014SOL     OW33284   6.609   5.827   4.688
11014SOL    HW133285   6.605   5.780   4.605
11014SOL    HW233286   6.605   5.759   4.755
11015SOL     OW33287   5.694   6.608   5.437
11015SOL    HW133288   5.620   6.586   5.495
11015SOL    HW233289   5.771   6.576   5.484
11016SOL     OW33290   6.261   5.782   5.223
11016SOL    HW133291   6.345   5.760   5.183
11016SOL    HW233292   6.285   5.814   5.311
11017SOL     OW33293   5.667   5.912   3.754
11017SOL    HW133294   5.581   5.893   3.716
11017SOL    HW233295   5.697   5.991   3.708
11018SOL     OW33296   5.646   5.739   4.023
11018SOL    HW133297   5.633   5.818   3.970
11018SOL    HW233298   5.731   5.705   3.996
11019SOL     OW33299   6.208   6.410   5.161
11019SOL    HW133300   6.266   6.484   5.142
11019SOL    HW233301   6.267   6.335   5.168
11020SOL     OW33302   6.306   6.144   5.422
11020SOL    HW133303   6.349   6.202   5.485
11020SOL    HW233304   6.321   6.056   5.457
11021SOL     OW33305   0.020   6.859   5.368
11021SOL    HW133306   0.002   6.803   5.444
11021SOL    HW233307   0.102   6.825   5.333
11022SOL     OW33308   6.811   5.903   4.158
11022SOL    HW133309   6.885   5.856   4.121
11022SOL    HW233310   6.847   5.949   4.234
11023SOL     OW33311   6.169   6.320   4.400
11023SOL    HW133312   6.212   6.404   4.385
11023SOL    HW233313   6.106   6.311   4.328
11024SOL     OW33314   6.455   6.554   4.579
11024SOL    HW133315   6.506   6.480   4.611
11024SOL    HW233316   6.427   6.601   4.657
11025SOL     OW33317   6.669   6.560   3.812
11025SOL    HW133318   6.643   6.622   3.744
11025SOL    HW233319   6.744   6.513   3.775
11026SOL     OW33320   5.805   6.918   5.537
11026SOL    HW133321   5.745   6.844   5.552
11026SOL    HW233322   5.811   6.962   5.622
11027SOL     OW33323   5.692   6.821   4.397
11027SOL    HW133324   5.715   6.766   4.472
11027SOL    HW233325   5.749   6.792   4.326
11028SOL     OW33326   6.281   6.971   5.357
11028SOL    HW133327   6.191   6.978   5.388
11028SOL    HW233328   6.302   0.059   5.325
11029SOL     OW33329   6.012   6.018   4.248
11029SOL    HW133330   6.045   5.947   4.192
11029SOL    HW233331   5.963   5.973   4.317
11030SOL     OW33332   5.923   6.147   5.017
11030SOL    HW133333   5.976   6.088   5.071
11030SOL    HW233334   5.938   6.118   4.927
11031SOL     OW33335   6.990   5.803   4.840
11031SOL    HW133336   6.989   5.713   4.874
11031SOL    HW233337   6.944   5.854   4.906
11032SOL     OW33338   6.600   5.600   4.856
11032SOL    HW133339   6.551   5.531   4.812
11032SOL    HW233340   6.690   5.567   4.861
11033SOL     OW33341   6.334   6.908   3.987
11033SOL    HW133342   6.316   6.817   4.010
11033SOL    HW233343   6.373   6.946   4.066
11034SOL     OW33344   6.907   5.674   3.867
11034SOL    HW133345   6.936   5.623   3.791
11034SOL    HW233346   6.835   5.623   3.904
11035SOL     OW33347   5.623   6.647   4.036
11035SOL    HW133348   5.717   6.644   4.016
11035SOL    HW233349   5.600   6.557   4.057
11036SOL     OW33350   5.806   6.210   5.717
11036SOL    HW133351   5.717   6.203   5.754
11036SOL    HW233352   5.796   6.187   5.625
11037SOL     OW33353   5.806   5.879   6.581
11037SOL    HW133354   5.839   5.838   6.661
11037SOL    HW233355   5.719   5.841   6.569
11038SOL     OW33356   5.582   5.972   6.226
11038SOL    HW133357   5.501   6.000   6.269
11038SOL    HW233358   5.558   5.894   6.176
11039SOL     OW33359   6.146   6.885   6.768
11039SOL    HW133360   6.077   6.910   6.706
11039SOL    HW233361   6.100   6.875   6.852
11040SOL     OW33362   0.073   0.127   6.265
11040SOL    HW133363   6.990   0.109   6.310
11040SOL    HW233364   0.107   0.040   6.244
11041SOL     OW33365   6.691   6.305   6.273
11041SOL    HW133366   6.752   6.378   6.267
11041SOL    HW233367   6.658   6.309   6.363
11042SOL     OW33368   6.340   6.742   6.618
11042SOL    HW133369   6.280   6.781   6.682
11042SOL    HW233370   6.331   6.798   6.541
11043SOL     OW33371   6.275   6.580   6.227
11043SOL    HW133372   6.341   6.572   6.297
11043SOL    HW233373   6.205   6.631   6.267
11044SOL     OW33374   5.928   0.009   6.640
11044SOL    HW133375   5.851   6.966   6.603
11044SOL    HW233376   5.965   0.059   6.567
11045SOL     OW33377   5.846   6.680   6.487
11045SOL    HW133378   5.841   6.591   6.522
11045SOL    HW233379   5.788   6.731   6.543
11046SOL     OW33380   6.158   6.565   5.728
11046SOL    HW133381   6.204   6.613   5.659
11046SOL    HW233382   6.199   6.594   5.809
11047SOL     OW33383   0.242   5.782   0.084
11047SOL    HW133384   0.179   5.854   0.085
11047SOL    HW233385   0.193   5.707   0.116
11048SOL     OW33386   5.706   6.241   6.149
11048SOL    HW133387   5.675   6.153   6.170
11048SOL    HW233388   5.697   6.290   6.230
11049SOL     OW33389   6.838   6.775   0.031
11049SOL    HW133390   6.886   6.726   6.964
11049SOL    HW233391   6.906   6.821   0.080
11050SOL     OW33392   6.407   5.594   6.103
11050SOL    HW133393   6.446   5.677   6.077
11050SOL    HW233394   6.313   5.611   6.107
11051SOL     OW33395   5.777   6.555   6.836
11051SOL    HW133396   5.855   6.502   6.821
11051SOL    HW233397   5.704   6.499   6.809
11052SOL     OW33398   6.180   6.298   5.859
11052SOL    HW133399   6.182   6.382   5.814
11052SOL    HW233400   6.115   6.309   5.928
11053SOL     OW33401   6.872   5.911   6.476
11053SOL    HW133402   6.778   5.896   6.492
11053SOL    HW233403   6.915   5.875   6.553
11054SOL     OW33404   6.411   6.170   0.049
11054SOL    HW133405   6.352   6.224   0.102
11054SOL    HW233406   6.354   6.128   6.985
11055SOL     OW33407   6.562   5.965   6.799
11055SOL    HW133408   6.476   5.999   6.825
11055SOL    HW233409   6.544   5.915   6.720
11056SOL     OW33410   6.638   6.287   6.008
11056SOL    HW133411   6.653   6.289   6.102
11056SOL    HW233412   6.555   6.241   5.997
11057SOL     OW33413   5.674   6.405   6.365
11057SOL    HW133414   5.755   6.401   6.417
11057SOL    HW233415   5.628   6.482   6.399
11058SOL     OW33416   6.484   5.936   5.781
11058SOL    HW133417   6.525   5.999   5.722
11058SOL    HW233418   6.483   5.854   5.733
11059SOL     OW33419   6.937   6.720   6.104
11059SOL    HW133420   6.990   6.700   6.027
11059SOL    HW233421   6.889   6.799   6.081
11060SOL     OW33422   6.140   5.761   6.487
11060SOL    HW133423   6.145   5.791   6.578
11060SOL    HW233424   6.138   5.842   6.435
11061SOL     OW33425   5.899   6.550   5.847
11061SOL    HW133426   5.981   6.564   5.801
11061SOL    HW233427   5.867   6.465   5.814
11062SOL     OW33428   5.983   6.278   6.058
11062SOL    HW133429   5.999   6.185   6.072
11062SOL    HW233430   5.889   6.290   6.076
11063SOL     OW33431   6.234   5.701   5.686
11063SOL    HW133432   6.287   5.625   5.709
11063SOL    HW233433   6.179   5.672   5.614
11064SOL     OW33434   6.516   6.094   6.486
11064SOL    HW133435   6.491   6.086   6.394
11064SOL    HW233436   6.548   6.008   6.510
11065SOL     OW33437   6.140   5.649   6.080
11065SOL    HW133438   6.061   5.648   6.134
11065SOL    HW233439   6.130   5.726   6.024
11066SOL     OW33440   6.988   6.714   5.603
11066SOL    HW133441   0.017   6.670   5.683
11066SOL    HW233442   6.936   6.789   5.634
11067SOL     OW33443   5.874   5.634   5.772
11067SOL    HW133444   5.932   5.699   5.731
11067SOL    HW233445   5.933   5.573   5.815
11068SOL     OW33446   6.531   5.836   6.038
11068SOL    HW133447   6.503   5.874   5.954
11068SOL    HW233448   6.625   5.850   6.040
11069SOL     OW33449   6.830   0.102   6.369
11069SOL    HW133450   6.752   0.139   6.328
11069SOL    HW233451   6.824   0.128   6.460
11070SOL     OW33452   6.058   6.712   6.322
11070SOL    HW133453   5.990   6.706   6.389
11070SOL    HW233454   6.011   6.714   6.239
11071SOL     OW33455   6.609   6.117   5.607
11071SOL    HW133456   6.567   6.201   5.593
11071SOL    HW233457   6.672   6.132   5.678
11072SOL     OW33458   6.151   5.807   6.763
11072SOL    HW133459   6.186   5.725   6.799
11072SOL    HW233460   6.058   5.806   6.787
11073SOL     OW33461   6.449   6.039   6.225
11073SOL    HW133462   6.410   6.100   6.163
11073SOL    HW233463   6.472   5.962   6.173
11074SOL     OW33464   6.609   5.634   6.322
11074SOL    HW133465   6.543   5.630   6.253
11074SOL    HW233466   6.583   5.565   6.384
11075SOL     OW33467   6.112   5.847   5.894
11075SOL    HW133468   6.163   5.804   5.826
11075SOL    HW233469   6.084   5.930   5.855
11076SOL     OW33470   6.638   6.926   6.931
11076SOL    HW133471   6.559   6.884   6.965
11076SOL    HW233472   6.710   6.880   6.974
11077SOL     OW33473   6.734   6.776   6.696
11077SOL    HW133474   6.698   6.836   6.761
11077SOL    HW233475   6.679   6.789   6.619
11078SOL     OW33476   6.290   6.644   5.953
11078SOL    HW133477   6.280   6.631   6.047
11078SOL    HW233478   6.368   6.594   5.930
11079SOL     OW33479   6.013   6.400   6.849
11079SOL    HW133480   6.061   6.423   6.928
11079SOL    HW233481   5.979   6.312   6.867
11080SOL     OW33482   6.822   5.993   6.869
11080SOL    HW133483   6.804   6.077   6.911
11080SOL    HW233484   6.741   5.970   6.824
11081SOL     OW33485   5.916   6.708   6.083
11081SOL    HW133486   5.969   6.773   6.036
11081SOL    HW233487   5.909   6.635   6.022
11082SOL     OW33488   6.132   6.117   6.444
11082SOL    HW133489   6.145   6.175   6.370
11082SOL    HW233490   6.202   6.141   6.506
11083SOL     OW33491   6.818   6.955   6.010
11083SOL    HW133492   6.847   0.037   6.050
11083SOL    HW233493   6.724   6.950   6.028
11084SOL     OW33494   6.172   6.455   6.623
11084SOL    HW133495   6.199   6.547   6.619
11084SOL    HW233496   6.117   6.449   6.701
11085SOL     OW33497   6.956   6.429   6.603
11085SOL    HW133498   6.867   6.413   6.573
11085SOL    HW233499   6.986   6.344   6.637
11086SOL     OW33500   6.766   6.120   5.832
11086SOL    HW133501   6.781   6.041   5.885
11086SOL    HW233502   6.731   6.184   5.894
11087SOL     OW33503   5.888   5.788   6.835
11087SOL    HW133504   5.854   5.807   6.922
11087SOL    HW233505   5.876   5.694   6.824
11088SOL     OW33506   5.631   6.900   6.878
11088SOL    HW133507   5.673   6.838   6.937
11088SOL    HW233508   5.647   6.986   6.917
11089SOL     OW33509   6.306   6.211   6.638
11089SOL    HW133510   6.383   6.199   6.582
11089SOL    HW233511   6.278   6.301   6.621
11090SOL     OW33512   5.897   5.648   6.209
11090SOL    HW133513   5.871   5.737   6.230
11090SOL    HW233514   5.904   5.604   6.294
11091SOL     OW33515   0.209   6.045   5.914
11091SOL    HW133516   0.167   5.959   5.917
11091SOL    HW233517   0.190   6.084   6.000
11092SOL     OW33518   6.614   6.342   6.551
11092SOL    HW133519   6.602   6.357   6.645
11092SOL    HW233520   6.590   6.251   6.537
11093SOL     OW33521   6.898   6.401   5.612
11093SOL    HW133522   6.965   6.344   5.649
11093SOL    HW233523   6.942   6.443   5.538
11094SOL     OW33524   5.895   6.395   6.532
11094SOL    HW133525   5.988   6.416   6.521
11094SOL    HW233526   5.895   6.303   6.561
11095SOL     OW33527   5.920   6.119   6.606
11095SOL    HW133528   5.880   6.034   6.590
11095SOL    HW233529   5.995   6.122   6.547
11096SOL     OW33530   6.757   5.813   0.063
11096SOL    HW133531   6.790   5.863   0.138
11096SOL    HW233532   6.774   5.869   6.987
11097SOL     OW33533   5.618   6.893   5.757
11097SOL    HW133534   5.531   6.919   5.729
11097SOL    HW233535   5.604   6.811   5.806
11098SOL     OW33536   6.560   6.373   6.820
11098SOL    HW133537   6.628   6.353   6.885
11098SOL    HW233538   6.479   6.338   6.858
11099SOL     OW33539   5.640   6.141   6.722
11099SOL    HW133540   5.683   6.109   6.643
11099SOL    HW233541   5.712   6.169   6.779
11100SOL     OW33542   6.404   6.155   5.954
11100SOL    HW133543   6.409   6.081   5.893
11100SOL    HW233544   6.329   6.206   5.924
11101SOL     OW33545   6.279   6.042   6.848
11101SOL    HW133546   6.234   5.963   6.819
11101SOL    HW233547   6.277   6.100   6.771
11102SOL     OW33548   6.043   6.076   5.762
11102SOL    HW133549   6.103   6.145   5.789
11102SOL    HW233550   5.958   6.119   5.755
11103SOL     OW33551   5.768   6.727   0.041
11103SOL    HW133552   5.744   6.674   0.118
11103SOL    HW233553   5.769   6.664   6.969
11104SOL     OW33554   6.892   6.593   6.817
11104SOL    HW133555   6.926   6.543   6.743
11104SOL    HW233556   6.833   6.657   6.778
11105SOL     OW33557   6.887   6.452   5.896
11105SOL    HW133558   6.821   6.414   5.953
11105SOL    HW233559   6.857   6.431   5.807
11106SOL     OW33560   5.669   6.862   6.607
11106SOL    HW133561   5.650   6.871   6.700
11106SOL    HW233562   5.600   6.804   6.574
11107SOL     OW33563   6.866   6.509   6.252
11107SOL    HW133564   6.950   6.467   6.269
11107SOL    HW233565   6.887   6.584   6.198
11108SOL     OW33566   6.395   6.836   0.018
11108SOL    HW133567   6.392   6.849   0.113
11108SOL    HW233568   6.309   6.865   6.987
11109SOL     OW33569   5.840   5.898   6.300
11109SOL    HW133570   5.754   5.932   6.276
11109SOL    HW233571   5.840   5.895   6.395
11110SOL     OW33572   6.829   0.199   5.626
11110SOL    HW133573   6.837   0.115   5.671
11110SOL    HW233574   6.744   0.195   5.582
11111SOL     OW33575   6.361   6.575   6.939
11111SOL    HW133576   6.433   6.544   6.884
11111SOL    HW233577   6.387   6.663   6.966
11112SOL     OW33578   6.500   6.495   5.874
11112SOL    HW133579   6.563   6.526   5.809
11112SOL    HW233580   6.548   6.429   5.924
11113SOL     OW33581   5.988   6.890   6.993
11113SOL    HW133582   5.969   6.957   0.058
11113SOL    HW233583   5.919   6.825   0.005
11114SOL     OW33584   6.642   6.714   6.312
11114SOL    HW133585   6.570   6.659   6.343
11114SOL    HW233586   6.707   6.652   6.280
11115SOL     OW33587   6.608   5.825   6.539
11115SOL    HW133588   6.603   5.779   6.456
11115SOL    HW233589   6.609   5.756   6.605
11116SOL     OW33590   6.265   5.764   0.097
11116SOL    HW133591   6.351   5.722   0.090
11116SOL    HW233592   6.283   5.849   0.136
11117SOL     OW33593   5.667   5.912   5.616
11117SOL    HW133594   5.581   5.893   5.579
11117SOL    HW233595   5.697   5.990   5.570
11118SOL     OW33596   5.645   5.739   5.885
11118SOL    HW133597   5.633   5.818   5.832
11118SOL    HW233598   5.731   5.705   5.859
11119SOL     OW33599   6.810   5.903   6.019
11119SOL    HW133600   6.885   5.856   5.982
11119SOL    HW233601   6.847   5.949   6.095
11120SOL     OW33602   6.170   6.320   6.261
11120SOL    HW133603   6.212   6.405   6.246
11120SOL    HW233604   6.106   6.312   6.189
11121SOL     OW33605   6.457   6.554   6.442
11121SOL    HW133606   6.506   6.481   6.477
11121SOL    HW233607   6.423   6.600   6.519
11122SOL     OW33608   6.669   6.561   5.675
11122SOL    HW133609   6.643   6.622   5.607
11122SOL    HW233610   6.744   6.514   5.637
11123SOL     OW33611   5.695   6.826   6.258
11123SOL    HW133612   5.708   6.768   6.334
11123SOL    HW233613   5.752   6.789   6.190
11124SOL     OW33614   6.013   6.017   6.110
11124SOL    HW133615   6.045   5.946   6.055
11124SOL    HW233616   5.963   5.973   6.179
11125SOL     OW33617   5.900   6.138   6.879
11125SOL    HW133618   5.963   6.080   6.922
11125SOL    HW233619   5.917   6.126   6.785
11126SOL     OW33620   6.986   5.813   6.707
11126SOL    HW133621   6.981   5.722   6.737
11126SOL    HW233622   6.931   5.862   6.768
11127SOL     OW33623   6.610   5.611   6.706
11127SOL    HW133624   6.548   5.540   6.691
11127SOL    HW233625   6.695   5.568   6.712
11128SOL     OW33626   6.334   6.908   5.848
11128SOL    HW133627   6.316   6.817   5.872
11128SOL    HW233628   6.372   6.946   5.927
11129SOL     OW33629   6.908   5.674   5.729
11129SOL    HW133630   6.936   5.623   5.653
11129SOL    HW233631   6.835   5.623   5.766
11130SOL     OW33632   5.623   6.647   5.898
11130SOL    HW133633   5.717   6.644   5.878
11130SOL    HW233634   5.600   6.557   5.919
11131CL      CL33635   3.217   2.672   0.366
   7.00000   7.00000   7.00000
