SJ2H in water
 2651
    1SJ2H   Cl2    1   1.644   1.462   1.500
    1SJ2H    C1    2   1.489   1.505   1.500
    1SJ2H    H1    3   1.434   1.416   1.528
    1SJ2H    Cl    4   1.443   1.550   1.345
    1SJ2H   Cl1    5   1.458   1.620   1.621
    2SOL     OW    6   0.227   0.654   0.101
    2SOL    HW1    7   0.161   0.607   0.160
    2SOL    HW2    8   0.249   0.596   0.022
    3SOL     OW    9   0.211   0.272   0.998
    3SOL    HW1   10   0.252   0.251   1.086
    3SOL    HW2   11   0.115   0.243   0.998
    4SOL     OW   12   0.009   0.382   0.656
    4SOL    HW1   13   2.924   0.423   0.690
    4SOL    HW2   14   2.988   0.306   0.594
    5SOL     OW   15   0.567   1.277   1.169
    5SOL    HW1   16   0.475   1.272   1.132
    5SOL    HW2   17   0.582   1.368   1.209
    6SOL     OW   18   1.553   1.510   0.704
    6SOL    HW1   19   1.507   1.496   0.791
    6SOL    HW2   20   1.485   1.521   0.631
    7SOL     OW   21   1.130   0.703   0.707
    7SOL    HW1   22   1.186   0.784   0.689
    7SOL    HW2   23   1.078   0.716   0.791
    8SOL     OW   24   1.759   0.600   0.231
    8SOL    HW1   25   1.748   0.584   0.133
    8SOL    HW2   26   1.725   0.520   0.281
    9SOL     OW   27   0.762   1.147   1.031
    9SOL    HW1   28   0.687   1.174   1.091
    9SOL    HW2   29   0.798   1.228   0.984
   10SOL     OW   30   0.854   0.790   1.818
   10SOL    HW1   31   0.847   0.862   1.888
   10SOL    HW2   32   0.881   0.831   1.731
   11SOL     OW   33   0.686   1.012   0.656
   11SOL    HW1   34   0.753   0.992   0.727
   11SOL    HW2   35   0.609   1.061   0.696
   12SOL     OW   36   0.701   1.157   1.806
   12SOL    HW1   37   0.754   1.238   1.828
   12SOL    HW2   38   0.611   1.184   1.771
   13SOL     OW   39   0.329   1.437   1.067
   13SOL    HW1   40   0.259   1.388   1.015
   13SOL    HW2   41   0.390   1.485   1.004
   14SOL     OW   42   0.445   0.398   1.497
   14SOL    HW1   43   0.526   0.339   1.498
   14SOL    HW2   44   0.363   0.342   1.505
   15SOL     OW   45   1.612   0.455   0.734
   15SOL    HW1   46   1.531   0.485   0.684
   15SOL    HW2   47   1.642   0.527   0.795
   16SOL     OW   48   0.224   1.714   0.482
   16SOL    HW1   49   0.249   1.797   0.531
   16SOL    HW2   50   0.284   1.703   0.403
   17SOL     OW   51   1.137   1.337   1.692
   17SOL    HW1   52   1.176   1.341   1.784
   17SOL    HW2   53   1.078   1.257   1.685
   18SOL     OW   54   0.241   1.447   0.533
   18SOL    HW1   55   0.210   1.542   0.529
   18SOL    HW2   56   0.176   1.392   0.585
   19SOL     OW   57   0.249   1.085   0.890
   19SOL    HW1   58   0.254   0.995   0.933
   19SOL    HW2   59   0.191   1.145   0.945
   20SOL     OW   60   0.616   1.791   1.434
   20SOL    HW1   61   0.528   1.770   1.478
   20SOL    HW2   62   0.645   1.883   1.459
   21SOL     OW   63   0.596   0.973   0.143
   21SOL    HW1   64   0.609   1.048   0.078
   21SOL    HW2   65   0.642   0.996   0.229
   22SOL     OW   66   1.549   0.134   1.467
   22SOL    HW1   67   1.582   0.204   1.403
   22SOL    HW2   68   1.609   0.131   1.547
   23SOL     OW   69   0.125   0.632   0.572
   23SOL    HW1   70   0.078   0.549   0.600
   23SOL    HW2   71   0.117   0.701   0.644
   24SOL     OW   72   1.843   1.765   0.341
   24SOL    HW1   73   1.893   1.727   0.419
   24SOL    HW2   74   1.872   1.859   0.326
   25SOL     OW   75   0.015   1.596   0.113
   25SOL    HW1   76   0.020   1.498   0.137
   25SOL    HW2   77   2.995   1.649   0.195
   26SOL     OW   78   1.691   0.921   0.632
   26SOL    HW1   79   1.782   0.881   0.622
   26SOL    HW2   80   1.670   0.975   0.550
   27SOL     OW   81   1.647   1.109   0.434
   27SOL    HW1   82   1.733   1.116   0.383
   27SOL    HW2   83   1.650   1.170   0.513
   28SOL     OW   84   0.119   0.745   1.594
   28SOL    HW1   85   0.216   0.742   1.616
   28SOL    HW2   86   0.089   0.840   1.583
   29SOL     OW   87   0.609   1.376   0.733
   29SOL    HW1   88   0.562   1.289   0.743
   29SOL    HW2   89   0.594   1.412   0.640
   30SOL     OW   90   1.297   1.237   1.424
   30SOL    HW1   91   1.324   1.164   1.360
   30SOL    HW2   92   1.341   1.222   1.512
   31SOL     OW   93   0.817   0.011   0.494
   31SOL    HW1   94   0.849   0.106   0.493
   31SOL    HW2   95   0.718   0.009   0.504
   32SOL     OW   96   0.194   0.967   1.267
   32SOL    HW1   97   0.281   0.923   1.249
   32SOL    HW2   98   0.120   0.912   1.227
   33SOL     OW   99   1.509   1.008   0.205
   33SOL    HW1  100   1.446   0.934   0.229
   33SOL    HW2  101   1.566   1.031   0.285
   34SOL     OW  102   1.184   1.801   1.617
   34SOL    HW1  103   1.207   1.864   1.543
   34SOL    HW2  104   1.188   1.707   1.584
   35SOL     OW  105   0.324   0.254   1.794
   35SOL    HW1  106   0.387   0.329   1.815
   35SOL    HW2  107   0.238   0.268   1.843
   36SOL     OW  108   1.464   1.418   0.956
   36SOL    HW1  109   1.393   1.433   1.025
   36SOL    HW2  110   1.457   1.325   0.920
   37SOL     OW  111   1.663   1.723   0.576
   37SOL    HW1  112   1.633   1.701   0.484
   37SOL    HW2  113   1.637   1.650   0.639
   38SOL     OW  114   0.593   0.724   0.265
   38SOL    HW1  115   0.610   0.805   0.208
   38SOL    HW2  116   0.525   0.747   0.335
   39SOL     OW  117   1.285   0.340   0.931
   39SOL    HW1  118   1.190   0.309   0.935
   39SOL    HW2  119   1.338   0.291   1.001
   40SOL     OW  120   1.584   1.665   0.308
   40SOL    HW1  121   1.675   1.706   0.307
   40SOL    HW2  122   1.556   1.643   0.214
   41SOL     OW  123   0.797   0.612   1.458
   41SOL    HW1  124   0.765   0.596   1.551
   41SOL    HW2  125   0.750   0.549   1.395
   42SOL     OW  126   1.396   0.474   1.677
   42SOL    HW1  127   1.386   0.519   1.765
   42SOL    HW2  128   1.462   0.399   1.685
   43SOL     OW  129   0.964   0.889   1.577
   43SOL    HW1  130   1.019   0.812   1.546
   43SOL    HW2  131   0.911   0.926   1.500
   44SOL     OW  132   0.993   0.417   1.232
   44SOL    HW1  133   0.918   0.440   1.293
   44SOL    HW2  134   0.959   0.361   1.156
   45SOL     OW  135   1.043   0.703   0.426
   45SOL    HW1  136   1.065   0.697   0.523
   45SOL    HW2  137   0.962   0.648   0.407
   46SOL     OW  138   0.100   0.821   0.764
   46SOL    HW1  139   0.183   0.805   0.817
   46SOL    HW2  140   0.041   0.886   0.812
   47SOL     OW  141   0.138   1.833   1.575
   47SOL    HW1  142   0.125   1.808   1.670
   47SOL    HW2  143   0.050   1.860   1.536
   48SOL     OW  144   0.918   0.339   0.220
   48SOL    HW1  145   0.932   0.406   0.147
   48SOL    HW2  146   0.884   0.253   0.181
   49SOL     OW  147   1.715   0.583   1.828
   49SOL    HW1  148   1.680   0.667   1.788
   49SOL    HW2  149   1.729   0.515   1.756
   50SOL     OW  150   1.370   1.143   0.541
   50SOL    HW1  151   1.453   1.120   0.490
   50SOL    HW2  152   1.317   1.210   0.490
   51SOL     OW  153   0.517   0.192   0.914
   51SOL    HW1  154   0.536   0.209   1.010
   51SOL    HW2  155   0.546   0.271   0.860
   52SOL     OW  156   1.009   1.450   0.474
   52SOL    HW1  157   0.963   1.522   0.422
   52SOL    HW2  158   1.001   1.469   0.572
   53SOL     OW  159   0.354   1.801   0.851
   53SOL    HW1  160   0.403   1.715   0.865
   53SOL    HW2  161   0.417   1.878   0.862
   54SOL     OW  162   1.796   1.064   0.867
   54SOL    HW1  163   1.737   1.048   0.788
   54SOL    HW2  164   1.740   1.069   0.950
   55SOL     OW  165   1.190   1.547   1.509
   55SOL    HW1  166   1.204   1.469   1.570
   55SOL    HW2  167   1.147   1.515   1.424
   56SOL     OW  168   0.322   0.953   0.228
   56SOL    HW1  169   0.419   0.964   0.207
   56SOL    HW2  170   0.293   0.861   0.202
   57SOL     OW  171   1.470   0.735   0.727
   57SOL    HW1  172   1.456   0.681   0.810
   57SOL    HW2  173   1.548   0.797   0.740
   58SOL     OW  174   0.461   1.257   1.733
   58SOL    HW1  175   0.430   1.267   1.638
   58SOL    HW2  176   0.383   1.262   1.795
   59SOL     OW  177   1.110   1.776   0.226
   59SOL    HW1  178   1.049   1.726   0.288
   59SOL    HW2  179   1.143   1.714   0.155
   60SOL     OW  180   0.200   0.295   1.499
   60SOL    HW1  181   0.113   0.344   1.484
   60SOL    HW2  182   0.187   0.225   1.569
   61SOL     OW  183   1.626   1.368   0.082
   61SOL    HW1  184   1.598   1.463   0.075
   61SOL    HW2  185   1.546   1.309   0.075
   62SOL     OW  186   0.469   1.730   0.329
   62SOL    HW1  187   0.496   1.796   0.399
   62SOL    HW2  188   0.538   1.726   0.257
   63SOL     OW  189   1.406   0.105   0.430
   63SOL    HW1  190   1.384   0.076   0.337
   63SOL    HW2  191   1.504   0.128   0.436
   64SOL     OW  192   0.258   1.795   1.234
   64SOL    HW1  193   0.304   1.726   1.289
   64SOL    HW2  194   0.231   1.755   1.146
   65SOL     OW  195   0.938   1.698   0.902
   65SOL    HW1  196   1.020   1.644   0.925
   65SOL    HW2  197   0.887   1.652   0.829
   66SOL     OW  198   0.386   0.695   0.476
   66SOL    HW1  199   0.426   0.603   0.483
   66SOL    HW2  200   0.291   0.692   0.506
   67SOL     OW  201   1.541   0.239   1.732
   67SOL    HW1  202   1.545   0.257   1.830
   67SOL    HW2  203   1.479   0.163   1.714
   68SOL     OW  204   0.612   0.111   0.114
   68SOL    HW1  205   0.711   0.110   0.123
   68SOL    HW2  206   0.587   0.120   0.017
   69SOL     OW  207   0.770   0.268   1.749
   69SOL    HW1  208   0.844   0.205   1.772
   69SOL    HW2  209   0.711   0.281   1.829
   70SOL     OW  210   0.881   1.518   1.192
   70SOL    HW1  211   0.861   1.485   1.100
   70SOL    HW2  212   0.948   1.457   1.235
   71SOL     OW  213   1.346   0.589   1.433
   71SOL    HW1  214   1.374   0.551   1.521
   71SOL    HW2  215   1.379   0.683   1.425
   72SOL     OW  216   0.810   1.401   0.929
   72SOL    HW1  217   0.899   1.398   0.885
   72SOL    HW2  218   0.738   1.395   0.861
   73SOL     OW  219   0.924   0.508   0.901
   73SOL    HW1  220   0.899   0.499   0.805
   73SOL    HW2  221   0.965   0.422   0.933
   74SOL     OW  222   0.538   0.052   0.497
   74SOL    HW1  223   0.450   0.045   0.544
   74SOL    HW2  224   0.539   0.136   0.442
   75SOL     OW  225   1.417   1.207   0.050
   75SOL    HW1  226   1.447   1.129   0.104
   75SOL    HW2  227   1.321   1.228   0.072
   76SOL     OW  228   0.303   0.072   0.191
   76SOL    HW1  229   0.374   0.140   0.172
   76SOL    HW2  230   0.347   2.986   0.216
   77SOL     OW  231   0.940   0.248   0.475
   77SOL    HW1  232   0.903   0.288   0.391
   77SOL    HW2  233   1.040   0.252   0.472
   78SOL     OW  234   1.080   0.677   1.462
   78SOL    HW1  235   1.000   0.617   1.466
   78SOL    HW2  236   1.162   0.622   1.449
   79SOL     OW  237   1.225   1.569   0.794
   79SOL    HW1  238   1.244   1.640   0.726
   79SOL    HW2  239   1.295   1.573   0.866
   80SOL     OW  240   0.463   1.144   0.741
   80SOL    HW1  241   0.388   1.128   0.805
   80SOL    HW2  242   0.431   1.130   0.648
   81SOL     OW  243   1.272   1.796   0.599
   81SOL    HW1  244   1.318   1.860   0.536
   81SOL    HW2  245   1.208   1.847   0.657
   82SOL     OW  246   1.039   0.512   0.023
   82SOL    HW1  247   0.992   0.597   2.998
   82SOL    HW2  248   1.107   0.531   0.093
   83SOL     OW  249   0.082   0.560   1.391
   83SOL    HW1  250   0.173   0.558   1.349
   83SOL    HW2  251   0.080   0.630   1.462
   84SOL     OW  252   0.572   0.221   1.171
   84SOL    HW1  253   0.608   0.146   1.227
   84SOL    HW2  254   0.476   0.236   1.193
   85SOL     OW  255   0.876   0.464   0.638
   85SOL    HW1  256   0.823   0.522   0.577
   85SOL    HW2  257   0.887   0.374   0.597
   86SOL     OW  258   1.000   0.049   0.766
   86SOL    HW1  259   0.958   0.056   0.675
   86SOL    HW2  260   0.985   2.957   0.803
   87SOL     OW  261   1.435   1.166   0.859
   87SOL    HW1  262   1.368   1.092   0.860
   87SOL    HW2  263   1.459   1.188   0.765
   88SOL     OW  264   1.471   0.596   0.987
   88SOL    HW1  265   1.422   0.509   0.991
   88SOL    HW2  266   1.537   0.601   1.062
   89SOL     OW  267   1.848   0.824   0.382
   89SOL    HW1  268   1.904   0.763   0.439
   89SOL    HW2  269   1.818   0.774   0.301
   90SOL     OW  270   0.489   1.400   0.161
   90SOL    HW1  271   0.415   1.373   0.223
   90SOL    HW2  272   0.454   1.407   0.068
   91SOL     OW  273   1.667   1.269   0.655
   91SOL    HW1  274   1.766   1.274   0.663
   91SOL    HW2  275   1.627   1.359   0.675
   92SOL     OW  276   1.406   0.582   0.099
   92SOL    HW1  277   1.331   0.563   0.162
   92SOL    HW2  278   1.471   0.507   0.101
   93SOL     OW  279   0.531   0.265   0.327
   93SOL    HW1  280   0.564   0.203   0.256
   93SOL    HW2  281   0.513   0.355   0.288
   94SOL     OW  282   1.763   1.215   1.590
   94SOL    HW1  283   1.856   1.182   1.576
   94SOL    HW2  284   1.766   1.312   1.615
   95SOL     OW  285   1.065   1.351   1.338
   95SOL    HW1  286   0.982   1.322   1.386
   95SOL    HW2  287   1.145   1.308   1.381
   96SOL     OW  288   1.121   1.203   1.108
   96SOL    HW1  289   1.063   1.239   1.182
   96SOL    HW2  290   1.082   1.231   1.020
   97SOL     OW  291   1.635   1.100   1.078
   97SOL    HW1  292   1.634   1.167   1.152
   97SOL    HW2  293   1.550   1.108   1.025
   98SOL     OW  294   0.908   0.105   1.396
   98SOL    HW1  295   0.940   0.082   1.304
   98SOL    HW2  296   0.978   0.159   1.443
   99SOL     OW  297   0.981   1.113   1.719
   99SOL    HW1  298   0.884   1.129   1.738
   99SOL    HW2  299   0.991   1.032   1.662
  100SOL     OW  300   0.704   1.057   0.375
  100SOL    HW1  301   0.688   1.052   0.474
  100SOL    HW2  302   0.788   1.008   0.353
  101SOL     OW  303   0.417   0.812   1.250
  101SOL    HW1  304   0.491   0.826   1.315
  101SOL    HW2  305   0.374   0.723   1.267
  102SOL     OW  306   1.273   0.388   1.260
  102SOL    HW1  307   1.303   0.461   1.321
  102SOL    HW2  308   1.176   0.401   1.237
  103SOL     OW  309   0.068   1.567   1.312
  103SOL    HW1  310   0.021   1.655   1.315
  103SOL    HW2  311   0.161   1.577   1.349
  104SOL     OW  312   0.366   1.105   0.494
  104SOL    HW1  313   0.354   1.186   0.436
  104SOL    HW2  314   0.362   1.023   0.437
  105SOL     OW  315   0.558   0.544   0.865
  105SOL    HW1  316   0.577   0.600   0.784
  105SOL    HW2  317   0.619   0.571   0.940
  106SOL     OW  318   1.248   1.348   0.394
  106SOL    HW1  319   1.305   1.424   0.424
  106SOL    HW2  320   1.154   1.364   0.423
  107SOL     OW  321   1.267   1.446   1.138
  107SOL    HW1  322   1.309   1.455   1.229
  107SOL    HW2  323   1.208   1.366   1.136
  108SOL     OW  324   1.584   0.632   0.474
  108SOL    HW1  325   1.542   0.691   0.543
  108SOL    HW2  326   1.633   0.688   0.407
  109SOL     OW  327   0.354   1.520   1.324
  109SOL    HW1  328   0.329   1.477   1.238
  109SOL    HW2  329   0.452   1.537   1.326
  110SOL     OW  330   0.409   0.745   1.600
  110SOL    HW1  331   0.468   0.799   1.541
  110SOL    HW2  332   0.453   0.657   1.621
  111SOL     OW  333   1.593   0.778   1.675
  111SOL    HW1  334   1.501   0.816   1.671
  111SOL    HW2  335   1.650   0.822   1.605
  112SOL     OW  336   1.003   0.105   1.762
  112SOL    HW1  337   1.036   0.194   1.730
  112SOL    HW2  338   1.036   0.034   1.701
  113SOL     OW  339   0.499   0.053   1.748
  113SOL    HW1  340   0.472   2.991   1.675
  113SOL    HW2  341   0.427   0.121   1.763
  114SOL     OW  342   0.581   0.870   1.033
  114SOL    HW1  343   0.615   0.963   1.021
  114SOL    HW2  344   0.518   0.866   1.110
  115SOL     OW  345   1.363   0.860   1.038
  115SOL    HW1  346   1.280   0.861   0.982
  115SOL    HW2  347   1.399   0.767   1.044
  116SOL     OW  348   1.207   0.531   0.275
  116SOL    HW1  349   1.215   0.444   0.324
  116SOL    HW2  350   1.168   0.600   0.336
  117SOL     OW  351   0.321   0.208   1.243
  117SOL    HW1  352   0.286   0.252   1.326
  117SOL    HW2  353   0.275   0.120   1.231
  118SOL     OW  354   0.042   1.305   1.280
  118SOL    HW1  355   0.076   1.255   1.359
  118SOL    HW2  356   0.049   1.404   1.298
  119SOL     OW  357   0.730   0.634   1.063
  119SOL    HW1  358   0.799   0.608   0.995
  119SOL    HW2  359   0.696   0.726   1.042
  120SOL     OW  360   1.731   0.955   1.850
  120SOL    HW1  361   1.682   0.910   1.775
  120SOL    HW2  362   1.669   0.970   1.927
  121SOL     OW  363   0.309   0.062   0.638
  121SOL    HW1  364   0.303   0.157   0.667
  121SOL    HW2  365   0.287   0.002   0.715
  122SOL     OW  366   1.612   0.372   0.370
  122SOL    HW1  367   1.644   0.302   0.434
  122SOL    HW2  368   1.582   0.453   0.421
  123SOL     OW  369   1.023   0.760   0.965
  123SOL    HW1  370   1.031   0.782   1.062
  123SOL    HW2  371   0.995   0.665   0.954
  124SOL     OW  372   0.981   1.564   1.710
  124SOL    HW1  373   0.962   1.614   1.625
  124SOL    HW2  374   1.027   1.478   1.688
  125SOL     OW  375   1.896   1.503   1.616
  125SOL    HW1  376   1.882   1.542   1.525
  125SOL    HW2  377   1.975   1.546   1.659
  126SOL     OW  378   0.352   0.912   1.806
  126SOL    HW1  379   0.434   0.938   1.857
  126SOL    HW2  380   0.376   0.851   1.731
  127SOL     OW  381   1.516   0.289   0.126
  127SOL    HW1  382   1.467   0.204   0.144
  127SOL    HW2  383   1.569   0.315   0.207
  128SOL     OW  384   1.298   0.828   0.037
  128SOL    HW1  385   1.336   0.737   0.053
  128SOL    HW2  386   1.323   0.860   2.946
  129SOL     OW  387   1.067   1.334   0.850
  129SOL    HW1  388   1.067   1.254   0.789
  129SOL    HW2  389   1.131   1.402   0.817
  130SOL     OW  390   0.315   0.811   0.948
  130SOL    HW1  391   0.412   0.837   0.945
  130SOL    HW2  392   0.305   0.721   0.991
  131SOL     OW  393   0.339   0.511   1.012
  131SOL    HW1  394   0.292   0.426   0.990
  131SOL    HW2  395   0.415   0.524   0.950
  132SOL     OW  396   1.141   0.385   1.693
  132SOL    HW1  397   1.094   0.442   1.760
  132SOL    HW2  398   1.234   0.419   1.680
  133SOL     OW  399   1.105   0.251   1.473
  133SOL    HW1  400   1.130   0.301   1.556
  133SOL    HW2  401   1.184   0.243   1.413
  134SOL     OW  402   0.006   1.315   0.176
  134SOL    HW1  403   2.910   1.337   0.157
  134SOL    HW2  404   0.011   1.231   0.230
  135SOL     OW  405   0.098   1.801   0.954
  135SOL    HW1  406   0.049   1.731   0.902
  135SOL    HW2  407   0.187   1.818   0.912
  136SOL     OW  408   0.501   1.573   0.904
  136SOL    HW1  409   0.571   1.640   0.929
  136SOL    HW2  410   0.544   1.497   0.854
  137SOL     OW  411   0.995   0.799   1.233
  137SOL    HW1  412   1.044   0.767   1.314
  137SOL    HW2  413   0.902   0.763   1.235
  138SOL     OW  414   0.048   0.560   1.107
  138SOL    HW1  415   0.134   0.521   1.075
  138SOL    HW2  416   0.039   0.545   1.205
  139SOL     OW  417   0.198   0.518   1.720
  139SOL    HW1  418   0.267   0.488   1.654
  139SOL    HW2  419   0.145   0.594   1.683
  140SOL     OW  420   1.372   0.941   1.659
  140SOL    HW1  421   1.398   1.037   1.669
  140SOL    HW2  422   1.374   0.916   1.562
  141SOL     OW  423   0.818   0.575   0.345
  141SOL    HW1  424   0.826   0.492   0.290
  141SOL    HW2  425   0.732   0.621   0.322
  142SOL     OW  426   1.646   0.602   1.193
  142SOL    HW1  427   1.623   0.540   1.268
  142SOL    HW2  428   1.736   0.578   1.156
  143SOL     OW  429   0.276   1.560   1.749
  143SOL    HW1  430   0.219   1.624   1.801
  143SOL    HW2  431   0.246   1.466   1.767
  144SOL     OW  432   0.685   0.461   1.266
  144SOL    HW1  433   0.640   0.377   1.236
  144SOL    HW2  434   0.694   0.524   1.189
  145SOL     OW  435   0.924   1.680   1.466
  145SOL    HW1  436   0.901   1.650   1.373
  145SOL    HW2  437   0.943   1.778   1.466
  146SOL     OW  438   0.441   0.497   0.205
  146SOL    HW1  439   0.518   0.560   0.211
  146SOL    HW2  440   0.356   0.549   0.194
  147SOL     OW  441   0.160   1.139   1.465
  147SOL    HW1  442   0.156   1.086   1.550
  147SOL    HW2  443   0.171   1.077   1.387
  148SOL     OW  444   1.332   1.052   1.228
  148SOL    HW1  445   1.364   0.988   1.158
  148SOL    HW2  446   1.252   1.101   1.194
  149SOL     OW  447   1.304   0.846   0.310
  149SOL    HW1  448   1.220   0.826   0.359
  149SOL    HW2  449   1.288   0.842   0.212
  150SOL     OW  450   1.755   1.751   1.137
  150SOL    HW1  451   1.827   1.778   1.073
  150SOL    HW2  452   1.736   1.653   1.127
  151SOL     OW  453   1.245   1.732   1.121
  151SOL    HW1  454   1.330   1.749   1.070
  151SOL    HW2  455   1.235   1.634   1.137
  152SOL     OW  456   0.092   1.244   1.029
  152SOL    HW1  457   0.078   1.262   1.126
  152SOL    HW2  458   0.003   1.248   0.982
  153SOL     OW  459   0.681   1.662   1.718
  153SOL    HW1  460   0.627   1.746   1.724
  153SOL    HW2  461   0.743   1.669   1.640
  154SOL     OW  462   0.896   0.087   0.135
  154SOL    HW1  463   0.947   0.066   0.052
  154SOL    HW2  464   0.932   0.033   0.211
  155SOL     OW  465   1.719   0.138   0.509
  155SOL    HW1  466   1.795   0.130   0.444
  155SOL    HW2  467   1.714   0.055   0.564
  156SOL     OW  468   1.391   1.570   0.480
  156SOL    HW1  469   1.456   1.595   0.408
  156SOL    HW2  470   1.342   1.652   0.511
  157SOL     OW  471   0.130   1.797   1.845
  157SOL    HW1  472   0.082   1.723   1.893
  157SOL    HW2  473   0.190   1.844   1.909
  158SOL     OW  474   1.279   0.922   0.668
  158SOL    HW1  475   1.352   0.855   0.676
  158SOL    HW2  476   1.313   1.002   0.617
  159SOL     OW  477   0.824   1.273   1.431
  159SOL    HW1  478   0.805   1.311   1.521
  159SOL    HW2  479   0.746   1.290   1.370
  160SOL     OW  480   0.675   1.606   0.156
  160SOL    HW1  481   0.674   1.628   0.058
  160SOL    HW2  482   0.618   1.526   0.173
  161SOL     OW  483   1.689   1.750   1.398
  161SOL    HW1  484   1.695   1.751   1.298
  161SOL    HW2  485   1.632   1.827   1.428
  162SOL     OW  486   1.846   0.162   0.966
  162SOL    HW1  487   1.862   0.077   0.915
  162SOL    HW2  488   1.758   0.201   0.941
  163SOL     OW  489   0.271   0.339   0.745
  163SOL    HW1  490   0.180   0.373   0.718
  163SOL    HW2  491   0.267   0.307   0.839
  164SOL     OW  492   1.201   1.608   0.033
  164SOL    HW1  493   1.199   1.515   0.070
  164SOL    HW2  494   1.143   1.612   2.952
  165SOL     OW  495   0.825   1.007   1.373
  165SOL    HW1  496   0.866   0.998   1.283
  165SOL    HW2  497   0.827   1.103   1.402
  166SOL     OW  498   0.918   0.924   0.303
  166SOL    HW1  499   0.981   0.956   0.233
  166SOL    HW2  500   0.958   0.846   0.351
  167SOL     OW  501   1.494   1.604   0.048
  167SOL    HW1  502   1.397   1.626   0.056
  167SOL    HW2  503   1.526   1.623   2.955
  168SOL     OW  504   0.371   1.298   1.490
  168SOL    HW1  505   0.358   1.384   1.441
  168SOL    HW2  506   0.291   1.240   1.476
  169SOL     OW  507   1.610   1.276   1.277
  169SOL    HW1  508   1.682   1.276   1.347
  169SOL    HW2  509   1.541   1.344   1.301
  170SOL     OW  510   1.044   1.101   0.705
  170SOL    HW1  511   0.970   1.050   0.750
  170SOL    HW2  512   1.107   1.037   0.661
  171SOL     OW  513   1.016   0.239   0.966
  171SOL    HW1  514   1.008   0.192   0.878
  171SOL    HW2  515   1.015   0.171   1.040
  172SOL     OW  516   0.598   1.490   0.486
  172SOL    HW1  517   0.638   1.432   0.414
  172SOL    HW2  518   0.537   1.558   0.444
  173SOL     OW  519   1.719   0.389   1.381
  173SOL    HW1  520   1.788   0.461   1.379
  173SOL    HW2  521   1.745   0.315   1.320
  174SOL     OW  522   0.259   1.343   0.294
  174SOL    HW1  523   0.166   1.345   0.257
  174SOL    HW2  524   0.260   1.388   0.383
  175SOL     OW  525   0.122   1.013   1.715
  175SOL    HW1  526   0.039   0.980   1.759
  175SOL    HW2  527   0.202   0.976   1.762
  176SOL     OW  528   0.669   0.206   1.493
  176SOL    HW1  529   0.755   0.182   1.447
  176SOL    HW2  530   0.686   0.218   1.591
  177SOL     OW  531   0.072   0.328   0.044
  177SOL    HW1  532   2.974   0.323   0.024
  177SOL    HW2  533   0.109   0.412   0.005
  178SOL     OW  534   1.434   0.858   1.401
  178SOL    HW1  535   1.380   0.916   1.340
  178SOL    HW2  536   1.530   0.862   1.374
  179SOL     OW  537   0.045   0.192   0.296
  179SOL    HW1  538   0.052   0.261   0.224
  179SOL    HW2  539   0.131   0.141   0.302
  180SOL     OW  540   1.184   1.352   0.123
  180SOL    HW1  541   1.089   1.323   0.112
  180SOL    HW2  542   1.211   1.341   0.219
  181SOL     OW  543   0.616   0.835   1.430
  181SOL    HW1  544   0.672   0.917   1.416
  181SOL    HW2  545   0.676   0.756   1.439
  182SOL     OW  546   1.489   1.772   0.971
  182SOL    HW1  547   1.517   1.829   0.894
  182SOL    HW2  548   1.567   1.758   1.032
  183SOL     OW  549   0.715   0.565   1.710
  183SOL    HW1  550   0.746   0.635   1.774
  183SOL    HW2  551   0.767   0.481   1.726
  184SOL     OW  552   1.463   1.200   1.640
  184SOL    HW1  553   1.450   1.209   1.739
  184SOL    HW2  554   1.560   1.204   1.619
  185SOL     OW  555   0.386   1.739   1.562
  185SOL    HW1  556   0.296   1.782   1.553
  185SOL    HW2  557   0.377   1.650   1.605
  186SOL     OW  558   1.675   0.882   1.256
  186SOL    HW1  559   1.660   0.791   1.216
  186SOL    HW2  560   1.667   0.951   1.184
  187SOL     OW  561   1.227   0.317   0.453
  187SOL    HW1  562   1.292   0.241   0.447
  187SOL    HW2  563   1.246   0.371   0.535
  188SOL     OW  564   0.593   0.743   0.659
  188SOL    HW1  565   0.638   0.832   0.646
  188SOL    HW2  566   0.512   0.738   0.601
  189SOL     OW  567   1.766   0.349   1.644
  189SOL    HW1  568   1.748   0.373   1.549
  189SOL    HW2  569   1.684   0.310   1.685
  190SOL     OW  570   1.740   0.933   1.513
  190SOL    HW1  571   1.755   1.029   1.533
  190SOL    HW2  572   1.726   0.921   1.414
  191SOL     OW  573   0.897   1.380   0.057
  191SOL    HW1  574   0.820   1.384   0.121
  191SOL    HW2  575   0.877   1.437   2.977
  192SOL     OW  576   0.658   1.795   0.953
  192SOL    HW1  577   0.627   1.887   0.926
  192SOL    HW2  578   0.757   1.789   0.941
  193SOL     OW  579   0.864   0.962   0.859
  193SOL    HW1  580   0.917   0.888   0.901
  193SOL    HW2  581   0.830   1.023   0.930
  194SOL     OW  582   1.103   1.025   0.091
  194SOL    HW1  583   1.058   1.052   0.006
  194SOL    HW2  584   1.165   0.949   0.072
  195SOL     OW  585   1.858   1.562   0.848
  195SOL    HW1  586   1.783   1.550   0.783
  195SOL    HW2  587   1.855   1.488   0.915
  196SOL     OW  588   0.224   1.306   1.854
  196SOL    HW1  589   0.166   1.230   1.825
  196SOL    HW2  590   0.214   1.321   1.952
  197SOL     OW  591   0.121   1.251   0.662
  197SOL    HW1  592   0.080   1.187   0.727
  197SOL    HW2  593   0.172   1.200   0.592
  198SOL     OW  594   0.677   1.397   1.626
  198SOL    HW1  595   0.595   1.348   1.655
  198SOL    HW2  596   0.674   1.491   1.661
  199SOL     OW  597   1.799   0.182   1.232
  199SOL    HW1  598   1.836   0.099   1.275
  199SOL    HW2  599   1.827   0.185   1.136
  200SOL     OW  600   0.456   0.430   0.538
  200SOL    HW1  601   0.456   0.365   0.462
  200SOL    HW2  602   0.397   0.396   0.611
  201SOL     OW  603   1.698   1.494   1.107
  201SOL    HW1  604   1.618   1.459   1.059
  201SOL    HW2  605   1.728   1.427   1.175
  202SOL     OW  606   0.327   0.549   1.287
  202SOL    HW1  607   0.382   0.493   1.349
  202SOL    HW2  608   0.351   0.526   1.192
  203SOL     OW  609   0.821   1.579   0.684
  203SOL    HW1  610   0.832   1.613   0.591
  203SOL    HW2  611   0.737   1.525   0.690
  204SOL     OW  612   1.428   0.218   1.124
  204SOL    HW1  613   1.461   0.141   1.179
  204SOL    HW2  614   1.375   0.280   1.181
  205SOL     OW  615   1.008   0.030   1.156
  205SOL    HW1  616   0.937   2.978   1.109
  205SOL    HW2  617   1.096   2.983   1.146
  206SOL     OW  618   0.765   1.330   0.311
  206SOL    HW1  619   0.728   1.238   0.321
  206SOL    HW2  620   0.858   1.333   0.348
  207SOL     OW  621   0.622   1.564   1.284
  207SOL    HW1  622   0.621   1.647   1.340
  207SOL    HW2  623   0.712   1.554   1.241
  208SOL     OW  624   1.350   0.055   0.171
  208SOL    HW1  625   1.409   2.998   0.114
  208SOL    HW2  626   1.258   0.016   0.173
  209SOL     OW  627   1.299   0.459   0.687
  209SOL    HW1  628   1.240   0.540   0.692
  209SOL    HW2  629   1.301   0.414   0.777
  210SOL     OW  630   1.605   0.233   0.887
  210SOL    HW1  631   1.519   0.218   0.936
  210SOL    HW2  632   1.595   0.310   0.825
  211SOL     OW  633   0.063   1.086   0.337
  211SOL    HW1  634   0.149   1.056   0.296
  211SOL    HW2  635   2.998   1.010   0.338
  212SOL     OW  636   0.877   1.649   0.347
  212SOL    HW1  637   0.806   1.623   0.281
  212SOL    HW2  638   0.845   1.728   0.399
  213SOL     OW  639   0.232   0.647   1.969
  213SOL    HW1  640   0.162   0.607   2.029
  213SOL    HW2  641   0.232   0.599   1.881
  214SOL     OW  642   0.233   0.250   2.849
  214SOL    HW1  643   0.257   0.249   2.946
  214SOL    HW2  644   0.134   0.237   2.840
  215SOL     OW  645   0.009   0.381   2.519
  215SOL    HW1  646   2.923   0.422   2.550
  215SOL    HW2  647   2.989   0.306   2.456
  216SOL     OW  648   1.553   1.510   2.566
  216SOL    HW1  649   1.505   1.494   2.652
  216SOL    HW2  650   1.486   1.521   2.492
  217SOL     OW  651   1.131   0.702   2.569
  217SOL    HW1  652   1.187   0.783   2.550
  217SOL    HW2  653   1.078   0.717   2.653
  218SOL     OW  654   1.759   0.608   2.094
  218SOL    HW1  655   1.744   0.599   1.995
  218SOL    HW2  656   1.728   0.525   2.140
  219SOL     OW  657   0.756   1.147   2.886
  219SOL    HW1  658   0.686   1.179   2.950
  219SOL    HW2  659   0.807   1.225   2.850
  220SOL     OW  660   0.686   1.012   2.517
  220SOL    HW1  661   0.754   0.992   2.588
  220SOL    HW2  662   0.609   1.062   2.558
  221SOL     OW  663   0.331   1.453   2.929
  221SOL    HW1  664   0.268   1.390   2.884
  221SOL    HW2  665   0.392   1.494   2.861
  222SOL     OW  666   1.615   0.454   2.591
  222SOL    HW1  667   1.531   0.482   2.544
  222SOL    HW2  668   1.637   0.522   2.661
  223SOL     OW  669   0.226   1.711   2.347
  223SOL    HW1  670   0.249   1.797   2.393
  223SOL    HW2  671   0.278   1.704   2.262
  224SOL     OW  672   0.241   1.445   2.392
  224SOL    HW1  673   0.212   1.541   2.391
  224SOL    HW2  674   0.176   1.391   2.446
  225SOL     OW  675   0.238   1.084   2.747
  225SOL    HW1  676   0.257   0.999   2.795
  225SOL    HW2  677   0.192   1.148   2.809
  226SOL     OW  678   0.594   0.977   1.991
  226SOL    HW1  679   0.629   1.039   1.921
  226SOL    HW2  680   0.640   0.997   2.078
  227SOL     OW  681   0.128   0.630   2.435
  227SOL    HW1  682   0.077   0.548   2.461
  227SOL    HW2  683   0.117   0.700   2.506
  228SOL     OW  684   1.842   1.764   2.204
  228SOL    HW1  685   1.895   1.731   2.282
  228SOL    HW2  686   1.870   1.858   2.182
  229SOL     OW  687   0.029   1.597   1.991
  229SOL    HW1  688   0.019   1.498   2.004
  229SOL    HW2  689   2.983   1.646   2.065
  230SOL     OW  690   1.691   0.922   2.493
  230SOL    HW1  691   1.782   0.882   2.484
  230SOL    HW2  692   1.670   0.975   2.411
  231SOL     OW  693   1.646   1.109   2.294
  231SOL    HW1  694   1.731   1.117   2.243
  231SOL    HW2  695   1.649   1.170   2.374
  232SOL     OW  696   0.608   1.375   2.592
  232SOL    HW1  697   0.561   1.288   2.603
  232SOL    HW2  698   0.593   1.410   2.500
  233SOL     OW  699   0.818   0.009   2.354
  233SOL    HW1  700   0.849   0.104   2.355
  233SOL    HW2  701   0.719   0.007   2.366
  234SOL     OW  702   1.534   0.992   2.056
  234SOL    HW1  703   1.461   0.927   2.075
  234SOL    HW2  704   1.572   1.026   2.142
  235SOL     OW  705   1.442   1.422   2.805
  235SOL    HW1  706   1.413   1.426   2.901
  235SOL    HW2  707   1.451   1.327   2.777
  236SOL     OW  708   1.662   1.724   2.438
  236SOL    HW1  709   1.633   1.701   2.345
  236SOL    HW2  710   1.638   1.650   2.501
  237SOL     OW  711   0.595   0.725   2.126
  237SOL    HW1  712   0.613   0.803   2.065
  237SOL    HW2  713   0.526   0.751   2.193
  238SOL     OW  714   1.292   0.331   2.801
  238SOL    HW1  715   1.194   0.316   2.800
  238SOL    HW2  716   1.331   0.294   2.885
  239SOL     OW  717   1.584   1.665   2.171
  239SOL    HW1  718   1.675   1.707   2.171
  239SOL    HW2  719   1.556   1.645   2.078
  240SOL     OW  720   1.045   0.700   2.291
  240SOL    HW1  721   1.064   0.694   2.389
  240SOL    HW2  722   0.962   0.649   2.270
  241SOL     OW  723   0.099   0.818   2.627
  241SOL    HW1  724   0.184   0.805   2.678
  241SOL    HW2  725   0.045   0.890   2.670
  242SOL     OW  726   0.873   0.350   2.055
  242SOL    HW1  727   0.932   0.411   2.001
  242SOL    HW2  728   0.888   0.255   2.026
  243SOL     OW  729   1.371   1.144   2.404
  243SOL    HW1  730   1.453   1.120   2.352
  243SOL    HW2  731   1.317   1.210   2.352
  244SOL     OW  732   0.536   0.191   2.799
  244SOL    HW1  733   0.528   0.239   2.886
  244SOL    HW2  734   0.550   0.258   2.726
  245SOL     OW  735   1.008   1.449   2.336
  245SOL    HW1  736   0.964   1.522   2.285
  245SOL    HW2  737   1.002   1.468   2.434
  246SOL     OW  738   0.353   1.798   2.710
  246SOL    HW1  739   0.403   1.713   2.727
  246SOL    HW2  740   0.414   1.876   2.725
  247SOL     OW  741   1.800   1.064   2.724
  247SOL    HW1  742   1.739   1.048   2.646
  247SOL    HW2  743   1.746   1.066   2.808
  248SOL     OW  744   0.317   0.948   2.102
  248SOL    HW1  745   0.406   0.979   2.067
  248SOL    HW2  746   0.294   0.860   2.062
  249SOL     OW  747   1.468   0.738   2.590
  249SOL    HW1  748   1.460   0.678   2.669
  249SOL    HW2  749   1.550   0.795   2.600
  250SOL     OW  750   1.119   1.774   2.095
  250SOL    HW1  751   1.046   1.729   2.146
  250SOL    HW2  752   1.141   1.720   2.013
  251SOL     OW  753   1.630   1.376   1.949
  251SOL    HW1  754   1.593   1.468   1.937
  251SOL    HW2  755   1.558   1.309   1.931
  252SOL     OW  756   0.468   1.740   2.183
  252SOL    HW1  757   0.501   1.796   2.259
  252SOL    HW2  758   0.544   1.719   2.121
  253SOL     OW  759   1.406   0.108   2.292
  253SOL    HW1  760   1.386   0.074   2.200
  253SOL    HW2  761   1.504   0.129   2.299
  254SOL     OW  762   0.263   1.797   0.097
  254SOL    HW1  763   0.305   1.728   0.155
  254SOL    HW2  764   0.215   1.753   0.021
  255SOL     OW  765   0.941   1.694   2.762
  255SOL    HW1  766   1.023   1.638   2.773
  255SOL    HW2  767   0.883   1.654   2.691
  256SOL     OW  768   0.387   0.694   2.340
  256SOL    HW1  769   0.426   0.603   2.347
  256SOL    HW2  770   0.291   0.692   2.367
  257SOL     OW  771   0.619   0.125   1.974
  257SOL    HW1  772   0.712   0.090   1.984
  257SOL    HW2  773   0.584   0.100   1.883
  258SOL     OW  774   0.803   1.407   2.781
  258SOL    HW1  775   0.896   1.396   2.743
  258SOL    HW2  776   0.736   1.393   2.708
  259SOL     OW  777   0.920   0.514   2.758
  259SOL    HW1  778   0.899   0.495   2.663
  259SOL    HW2  779   0.959   0.432   2.801
  260SOL     OW  780   0.540   0.057   2.362
  260SOL    HW1  781   0.450   0.045   2.405
  260SOL    HW2  782   0.538   0.137   2.303
  261SOL     OW  783   1.428   1.195   1.905
  261SOL    HW1  784   1.464   1.118   1.957
  261SOL    HW2  785   1.337   1.219   1.940
  262SOL     OW  786   0.296   0.033   2.041
  262SOL    HW1  787   0.344   0.117   2.015
  262SOL    HW2  788   0.360   2.970   2.085
  263SOL     OW  789   0.938   0.248   2.334
  263SOL    HW1  790   0.897   0.290   2.253
  263SOL    HW2  791   1.037   0.254   2.328
  264SOL     OW  792   1.222   1.579   2.664
  264SOL    HW1  793   1.245   1.640   2.589
  264SOL    HW2  794   1.303   1.566   2.722
  265SOL     OW  795   0.461   1.144   2.604
  265SOL    HW1  796   0.386   1.129   2.668
  265SOL    HW2  797   0.429   1.128   2.510
  266SOL     OW  798   1.272   1.796   2.462
  266SOL    HW1  799   1.317   1.859   2.398
  266SOL    HW2  800   1.208   1.848   2.519
  267SOL     OW  801   1.025   0.550   1.880
  267SOL    HW1  802   0.985   0.637   1.853
  267SOL    HW2  803   1.094   0.566   1.951
  268SOL     OW  804   0.875   0.464   2.499
  268SOL    HW1  805   0.823   0.522   2.437
  268SOL    HW2  806   0.887   0.373   2.458
  269SOL     OW  807   1.000   0.047   2.626
  269SOL    HW1  808   0.957   0.053   2.536
  269SOL    HW2  809   0.986   2.955   2.664
  270SOL     OW  810   1.438   1.162   2.718
  270SOL    HW1  811   1.365   1.094   2.716
  270SOL    HW2  812   1.460   1.188   2.624
  271SOL     OW  813   1.490   0.581   2.824
  271SOL    HW1  814   1.422   0.510   2.839
  271SOL    HW2  815   1.523   0.614   2.912
  272SOL     OW  816   1.849   0.822   2.242
  272SOL    HW1  817   1.905   0.767   2.303
  272SOL    HW2  818   1.816   0.765   2.166
  273SOL     OW  819   0.492   1.402   2.030
  273SOL    HW1  820   0.411   1.376   2.081
  273SOL    HW2  821   0.470   1.406   1.932
  274SOL     OW  822   1.667   1.269   2.516
  274SOL    HW1  823   1.766   1.274   2.524
  274SOL    HW2  824   1.627   1.359   2.537
  275SOL     OW  825   1.391   0.574   1.935
  275SOL    HW1  826   1.330   0.553   2.012
  275SOL    HW2  827   1.482   0.538   1.954
  276SOL     OW  828   0.529   0.265   2.185
  276SOL    HW1  829   0.560   0.202   2.115
  276SOL    HW2  830   0.517   0.356   2.146
  277SOL     OW  831   1.647   1.100   2.935
  277SOL    HW1  832   1.654   1.173   0.003
  277SOL    HW2  833   1.558   1.106   2.889
  278SOL     OW  834   0.707   1.055   2.234
  278SOL    HW1  835   0.692   1.049   2.333
  278SOL    HW2  836   0.789   1.002   2.210
  279SOL     OW  837   0.361   1.104   2.356
  279SOL    HW1  838   0.359   1.185   2.298
  279SOL    HW2  839   0.363   1.022   2.299
  280SOL     OW  840   0.555   0.544   2.729
  280SOL    HW1  841   0.575   0.597   2.647
  280SOL    HW2  842   0.619   0.571   2.802
  281SOL     OW  843   1.248   1.349   2.253
  281SOL    HW1  844   1.306   1.424   2.284
  281SOL    HW2  845   1.154   1.363   2.285
  282SOL     OW  846   1.584   0.631   2.336
  282SOL    HW1  847   1.542   0.691   2.404
  282SOL    HW2  848   1.631   0.686   2.268
  283SOL     OW  849   0.575   0.868   2.881
  283SOL    HW1  850   0.622   0.954   2.861
  283SOL    HW2  851   0.533   0.874   2.971
  284SOL     OW  852   1.211   0.532   2.136
  284SOL    HW1  853   1.218   0.446   2.188
  284SOL    HW2  854   1.167   0.601   2.194
  285SOL     OW  855   0.730   0.639   2.918
  285SOL    HW1  856   0.798   0.609   2.850
  285SOL    HW2  857   0.697   0.730   2.893
  286SOL     OW  858   0.310   0.062   2.500
  286SOL    HW1  859   0.302   0.157   2.531
  286SOL    HW2  860   0.286   0.001   2.575
  287SOL     OW  861   1.609   0.371   2.233
  287SOL    HW1  862   1.644   0.302   2.296
  287SOL    HW2  863   1.583   0.453   2.284
  288SOL     OW  864   1.020   0.762   2.822
  288SOL    HW1  865   1.030   0.778   2.920
  288SOL    HW2  866   0.995   0.667   2.806
  289SOL     OW  867   1.533   0.276   1.991
  289SOL    HW1  868   1.471   0.202   2.015
  289SOL    HW2  869   1.569   0.318   2.075
  290SOL     OW  870   1.300   0.830   1.899
  290SOL    HW1  871   1.339   0.738   1.907
  290SOL    HW2  872   1.324   0.869   1.810
  291SOL     OW  873   1.058   1.343   2.701
  291SOL    HW1  874   1.067   1.256   2.653
  291SOL    HW2  875   1.134   1.403   2.675
  292SOL     OW  876   0.313   0.811   2.813
  292SOL    HW1  877   0.409   0.838   2.807
  292SOL    HW2  878   0.306   0.719   2.852
  293SOL     OW  879   0.328   0.514   2.869
  293SOL    HW1  880   0.289   0.425   2.849
  293SOL    HW2  881   0.409   0.530   2.813
  294SOL     OW  882   3.000   1.319   2.044
  294SOL    HW1  883   2.903   1.335   2.026
  294SOL    HW2  884   0.010   1.232   2.093
  295SOL     OW  885   0.095   1.810   2.804
  295SOL    HW1  886   0.051   1.729   2.764
  295SOL    HW2  887   0.188   1.817   2.770
  296SOL     OW  888   0.505   1.574   2.763
  296SOL    HW1  889   0.576   1.641   2.786
  296SOL    HW2  890   0.547   1.497   2.715
  297SOL     OW  891   0.988   0.766   0.089
  297SOL    HW1  892   1.038   0.756   0.175
  297SOL    HW2  893   0.889   0.768   0.108
  298SOL     OW  894   0.814   0.570   2.207
  298SOL    HW1  895   0.822   0.489   2.150
  298SOL    HW2  896   0.732   0.622   2.181
  299SOL     OW  897   0.699   0.453   0.104
  299SOL    HW1  898   0.618   0.397   0.090
  299SOL    HW2  899   0.702   0.525   0.035
  300SOL     OW  900   0.470   0.497   2.052
  300SOL    HW1  901   0.532   0.574   2.067
  300SOL    HW2  902   0.376   0.531   2.050
  301SOL     OW  903   1.304   0.854   2.170
  301SOL    HW1  904   1.221   0.827   2.219
  301SOL    HW2  905   1.289   0.842   2.072
  302SOL     OW  906   1.731   1.762   2.972
  302SOL    HW1  907   1.818   1.792   2.933
  302SOL    HW2  908   1.743   1.673   0.017
  303SOL     OW  909   0.077   1.247   2.897
  303SOL    HW1  910   0.056   1.271   2.992
  303SOL    HW2  911   2.996   1.259   2.840
  304SOL     OW  912   1.720   0.138   2.371
  304SOL    HW1  913   1.793   0.129   2.302
  304SOL    HW2  914   1.715   0.055   2.426
  305SOL     OW  915   1.391   1.570   2.342
  305SOL    HW1  916   1.456   1.594   2.271
  305SOL    HW2  917   1.342   1.652   2.372
  306SOL     OW  918   1.279   0.923   2.530
  306SOL    HW1  919   1.351   0.855   2.539
  306SOL    HW2  920   1.313   1.002   2.478
  307SOL     OW  921   0.673   1.612   2.016
  307SOL    HW1  922   0.682   1.626   1.918
  307SOL    HW2  923   0.621   1.528   2.033
  308SOL     OW  924   1.849   0.164   2.819
  308SOL    HW1  925   1.859   0.075   2.775
  308SOL    HW2  926   1.758   0.200   2.799
  309SOL     OW  927   0.273   0.342   2.605
  309SOL    HW1  928   0.181   0.373   2.581
  309SOL    HW2  929   0.271   0.303   2.698
  310SOL     OW  930   1.203   1.609   1.891
  310SOL    HW1  931   1.198   1.516   1.927
  310SOL    HW2  932   1.136   1.620   1.818
  311SOL     OW  933   0.917   0.910   2.150
  311SOL    HW1  934   0.981   0.945   2.081
  311SOL    HW2  935   0.958   0.833   2.197
  312SOL     OW  936   1.501   1.622   1.915
  312SOL    HW1  937   1.401   1.627   1.908
  312SOL    HW2  938   1.541   1.629   1.823
  313SOL     OW  939   1.045   1.100   2.567
  313SOL    HW1  940   0.970   1.050   2.610
  313SOL    HW2  941   1.107   1.036   2.523
  314SOL     OW  942   1.008   0.239   2.818
  314SOL    HW1  943   1.006   0.186   2.733
  314SOL    HW2  944   1.038   0.180   2.893
  315SOL     OW  945   0.598   1.489   2.347
  315SOL    HW1  946   0.637   1.432   2.275
  315SOL    HW2  947   0.536   1.556   2.306
  316SOL     OW  948   0.253   1.350   2.147
  316SOL    HW1  949   0.156   1.345   2.124
  316SOL    HW2  950   0.263   1.390   2.238
  317SOL     OW  951   0.091   0.333   1.912
  317SOL    HW1  952   0.002   0.300   1.881
  317SOL    HW2  953   0.114   0.417   1.864
  318SOL     OW  954   0.040   0.209   2.157
  318SOL    HW1  955   0.064   0.266   2.079
  318SOL    HW2  956   0.111   0.140   2.170
  319SOL     OW  957   1.182   1.344   1.980
  319SOL    HW1  958   1.086   1.317   1.978
  319SOL    HW2  959   1.215   1.343   2.074
  320SOL     OW  960   1.501   1.779   2.827
  320SOL    HW1  961   1.521   1.830   2.744
  320SOL    HW2  962   1.580   1.783   2.888
  321SOL     OW  963   1.718   0.857   0.074
  321SOL    HW1  964   1.640   0.797   0.091
  321SOL    HW2  965   1.685   0.949   0.051
  322SOL     OW  966   1.226   0.317   2.315
  322SOL    HW1  967   1.292   0.242   2.310
  322SOL    HW2  968   1.244   0.372   2.396
  323SOL     OW  969   0.592   0.744   2.522
  323SOL    HW1  970   0.638   0.831   2.507
  323SOL    HW2  971   0.513   0.738   2.461
  324SOL     OW  972   0.866   1.370   1.889
  324SOL    HW1  973   0.817   1.390   1.973
  324SOL    HW2  974   0.887   1.456   1.842
  325SOL     OW  975   0.660   1.797   2.822
  325SOL    HW1  976   0.628   1.885   2.786
  325SOL    HW2  977   0.758   1.788   2.806
  326SOL     OW  978   0.862   0.962   2.719
  326SOL    HW1  979   0.916   0.889   2.761
  326SOL    HW2  980   0.830   1.024   2.790
  327SOL     OW  981   1.081   0.987   1.949
  327SOL    HW1  982   1.055   1.040   1.867
  327SOL    HW2  983   1.161   0.931   1.928
  328SOL     OW  984   1.854   1.563   2.715
  328SOL    HW1  985   1.783   1.549   2.645
  328SOL    HW2  986   1.863   1.481   2.771
  329SOL     OW  987   0.119   1.250   2.521
  329SOL    HW1  988   0.084   1.187   2.591
  329SOL    HW2  989   0.176   1.199   2.457
  330SOL     OW  990   1.812   0.193   0.082
  330SOL    HW1  991   1.833   0.110   0.133
  330SOL    HW2  992   1.829   0.178   2.985
  331SOL     OW  993   0.457   0.430   2.398
  331SOL    HW1  994   0.457   0.364   2.323
  331SOL    HW2  995   0.399   0.397   2.471
  332SOL     OW  996   0.818   1.585   2.544
  332SOL    HW1  997   0.832   1.612   2.448
  332SOL    HW2  998   0.738   1.526   2.550
  333SOL     OW  999   0.770   1.331   2.168
  333SOL    HW1 1000   0.730   1.240   2.176
  333SOL    HW2 1001   0.859   1.331   2.214
  334SOL     OW 1002   1.351   0.047   2.033
  334SOL    HW1 1003   1.406   2.995   1.967
  334SOL    HW2 1004   1.261   0.005   2.042
  335SOL     OW 1005   1.298   0.458   2.550
  335SOL    HW1 1006   1.240   0.539   2.555
  335SOL    HW2 1007   1.302   0.413   2.640
  336SOL     OW 1008   1.602   0.236   2.751
  336SOL    HW1 1009   1.510   0.215   2.785
  336SOL    HW2 1010   1.597   0.312   2.686
  337SOL     OW 1011   0.058   1.083   2.170
  337SOL    HW1 1012   0.152   1.052   2.160
  337SOL    HW2 1013   3.000   1.006   2.198
  338SOL     OW 1014   0.875   1.647   2.209
  338SOL    HW1 1015   0.805   1.624   2.142
  338SOL    HW2 1016   0.847   1.728   2.260
  339SOL     OW 1017   0.226   2.512   0.097
  339SOL    HW1 1018   0.161   2.467   0.158
  339SOL    HW2 1019   0.247   2.453   0.020
  340SOL     OW 1020   0.215   2.137   0.990
  340SOL    HW1 1021   0.254   2.112   1.079
  340SOL    HW2 1022   0.126   2.093   0.979
  341SOL     OW 1023   0.016   2.246   0.640
  341SOL    HW1 1024   2.931   2.281   0.680
  341SOL    HW2 1025   2.999   2.158   0.596
  342SOL     OW 1026   1.134   2.567   0.707
  342SOL    HW1 1027   1.185   2.651   0.690
  342SOL    HW2 1028   1.077   2.579   0.789
  343SOL     OW 1029   1.756   2.463   0.229
  343SOL    HW1 1030   1.749   2.444   0.131
  343SOL    HW2 1031   1.725   2.382   0.281
  344SOL     OW 1032   0.763   0.007   1.029
  344SOL    HW1 1033   0.677   0.029   1.074
  344SOL    HW2 1034   0.794   0.085   0.974
  345SOL     OW 1035   0.858   2.650   1.818
  345SOL    HW1 1036   0.844   2.718   1.891
  345SOL    HW2 1037   0.883   2.697   1.734
  346SOL     OW 1038   0.662   2.848   0.693
  346SOL    HW1 1039   0.754   2.855   0.731
  346SOL    HW2 1040   0.622   2.939   0.686
  347SOL     OW 1041   0.464   2.266   1.492
  347SOL    HW1 1042   0.539   2.200   1.496
  347SOL    HW2 1043   0.377   2.218   1.507
  348SOL     OW 1044   1.613   2.312   0.737
  348SOL    HW1 1045   1.532   2.343   0.686
  348SOL    HW2 1046   1.646   2.387   0.795
  349SOL     OW 1047   0.215   0.304   0.477
  349SOL    HW1 1048   0.222   0.392   0.524
  349SOL    HW2 1049   0.180   0.235   0.542
  350SOL     OW 1050   0.239   2.948   0.881
  350SOL    HW1 1051   0.256   2.862   0.928
  350SOL    HW2 1052   0.193   0.011   0.943
  351SOL     OW 1053   0.615   2.829   0.142
  351SOL    HW1 1054   0.603   2.919   0.101
  351SOL    HW2 1055   0.663   2.838   0.229
  352SOL     OW 1056   1.585   1.984   1.474
  352SOL    HW1 1057   1.582   2.059   1.409
  352SOL    HW2 1058   1.589   2.020   1.567
  353SOL     OW 1059   0.123   2.499   0.568
  353SOL    HW1 1060   0.088   2.409   0.594
  353SOL    HW2 1061   0.114   2.562   0.645
  354SOL     OW 1062   1.696   2.804   0.623
  354SOL    HW1 1063   1.778   2.747   0.629
  354SOL    HW2 1064   1.681   2.832   0.528
  355SOL     OW 1065   0.119   2.607   1.591
  355SOL    HW1 1066   0.215   2.605   1.618
  355SOL    HW2 1067   0.086   2.701   1.592
  356SOL     OW 1068   0.652   0.235   0.685
  356SOL    HW1 1069   0.589   0.169   0.728
  356SOL    HW2 1070   0.601   0.292   0.621
  357SOL     OW 1071   1.298   0.056   1.431
  357SOL    HW1 1072   1.340   0.001   1.358
  357SOL    HW2 1073   1.371   0.101   1.484
  358SOL     OW 1074   0.809   1.862   0.502
  358SOL    HW1 1075   0.854   1.951   0.491
  358SOL    HW2 1076   0.711   1.876   0.513
  359SOL     OW 1077   0.194   2.836   1.257
  359SOL    HW1 1078   0.281   2.789   1.250
  359SOL    HW2 1079   0.120   2.772   1.235
  360SOL     OW 1080   1.525   2.849   0.201
  360SOL    HW1 1081   1.452   2.789   0.235
  360SOL    HW2 1082   1.587   2.871   0.276
  361SOL     OW 1083   0.327   2.113   1.802
  361SOL    HW1 1084   0.388   2.192   1.816
  361SOL    HW2 1085   0.239   2.131   1.844
  362SOL     OW 1086   0.594   2.586   0.267
  362SOL    HW1 1087   0.609   2.665   0.208
  362SOL    HW2 1088   0.525   2.608   0.335
  363SOL     OW 1089   1.282   2.205   0.933
  363SOL    HW1 1090   1.188   2.170   0.935
  363SOL    HW2 1091   1.337   2.155   1.000
  364SOL     OW 1092   0.796   2.474   1.457
  364SOL    HW1 1093   0.766   2.458   1.551
  364SOL    HW2 1094   0.749   2.410   1.395
  365SOL     OW 1095   1.394   2.333   1.677
  365SOL    HW1 1096   1.386   2.380   1.765
  365SOL    HW2 1097   1.465   2.263   1.683
  366SOL     OW 1098   0.963   2.755   1.582
  366SOL    HW1 1099   1.018   2.678   1.550
  366SOL    HW2 1100   0.910   2.792   1.506
  367SOL     OW 1101   0.992   2.275   1.238
  367SOL    HW1 1102   0.913   2.302   1.291
  367SOL    HW2 1103   0.963   2.220   1.160
  368SOL     OW 1104   1.045   2.564   0.425
  368SOL    HW1 1105   1.064   2.560   0.523
  368SOL    HW2 1106   0.962   2.512   0.405
  369SOL     OW 1107   0.099   2.675   0.768
  369SOL    HW1 1108   0.183   2.668   0.820
  369SOL    HW2 1109   0.045   2.752   0.801
  370SOL     OW 1110   0.922   2.197   0.218
  370SOL    HW1 1111   0.927   2.266   0.145
  370SOL    HW2 1112   0.891   2.110   0.179
  371SOL     OW 1113   1.712   2.442   1.828
  371SOL    HW1 1114   1.682   2.528   1.788
  371SOL    HW2 1115   1.730   2.376   1.756
  372SOL     OW 1116   0.545   2.050   0.892
  372SOL    HW1 1117   0.550   2.068   0.990
  372SOL    HW2 1118   0.552   2.137   0.842
  373SOL     OW 1119   1.797   2.913   0.869
  373SOL    HW1 1120   1.738   2.899   0.789
  373SOL    HW2 1121   1.740   2.927   0.950
  374SOL     OW 1122   1.473   2.597   0.726
  374SOL    HW1 1123   1.454   2.540   0.807
  374SOL    HW2 1124   1.549   2.658   0.746
  375SOL     OW 1125   0.226   2.170   1.514
  375SOL    HW1 1126   0.142   2.211   1.480
  375SOL    HW2 1127   0.204   2.089   1.568
  376SOL     OW 1128   1.401   1.968   0.427
  376SOL    HW1 1129   1.384   1.943   0.331
  376SOL    HW2 1130   1.500   1.982   0.440
  377SOL     OW 1131   0.385   2.557   0.478
  377SOL    HW1 1132   0.420   2.463   0.480
  377SOL    HW2 1133   0.289   2.556   0.505
  378SOL     OW 1134   1.542   2.089   1.728
  378SOL    HW1 1135   1.546   2.113   1.825
  378SOL    HW2 1136   1.472   2.019   1.715
  379SOL     OW 1137   0.625   1.988   0.115
  379SOL    HW1 1138   0.720   1.959   0.122
  379SOL    HW2 1139   0.583   1.947   0.034
  380SOL     OW 1140   0.773   2.133   1.751
  380SOL    HW1 1141   0.845   2.066   1.770
  380SOL    HW2 1142   0.711   2.138   1.829
  381SOL     OW 1143   1.344   2.451   1.434
  381SOL    HW1 1144   1.374   2.412   1.521
  381SOL    HW2 1145   1.379   2.545   1.426
  382SOL     OW 1146   0.926   2.370   0.901
  382SOL    HW1 1147   0.899   2.361   0.805
  382SOL    HW2 1148   0.964   2.284   0.934
  383SOL     OW 1149   0.545   1.924   0.508
  383SOL    HW1 1150   0.461   1.924   0.563
  383SOL    HW2 1151   0.547   2.004   0.449
  384SOL     OW 1152   0.938   2.101   0.473
  384SOL    HW1 1153   0.900   2.143   0.390
  384SOL    HW2 1154   1.037   2.109   0.471
  385SOL     OW 1155   1.079   2.541   1.459
  385SOL    HW1 1156   1.000   2.481   1.467
  385SOL    HW2 1157   1.162   2.486   1.450
  386SOL     OW 1158   1.044   2.375   0.021
  386SOL    HW1 1159   0.991   2.456   2.996
  386SOL    HW2 1160   1.106   2.398   0.096
  387SOL     OW 1161   0.084   2.419   1.394
  387SOL    HW1 1162   0.173   2.420   1.349
  387SOL    HW2 1163   0.081   2.491   1.463
  388SOL     OW 1164   0.563   2.086   1.160
  388SOL    HW1 1165   0.603   2.001   1.194
  388SOL    HW2 1166   0.468   2.092   1.190
  389SOL     OW 1167   0.871   2.321   0.639
  389SOL    HW1 1168   0.823   2.384   0.578
  389SOL    HW2 1169   0.891   2.236   0.591
  390SOL     OW 1170   1.014   1.910   0.754
  390SOL    HW1 1171   0.951   1.909   0.677
  390SOL    HW2 1172   0.995   1.833   0.815
  391SOL     OW 1173   1.429   0.004   0.870
  391SOL    HW1 1174   1.358   2.939   0.843
  391SOL    HW2 1175   1.449   0.065   0.793
  392SOL     OW 1176   1.470   2.459   0.988
  392SOL    HW1 1177   1.423   2.371   0.990
  392SOL    HW2 1178   1.538   2.462   1.062
  393SOL     OW 1179   1.839   2.674   0.388
  393SOL    HW1 1180   1.902   2.620   0.443
  393SOL    HW2 1181   1.817   2.626   0.304
  394SOL     OW 1182   1.405   2.444   0.100
  394SOL    HW1 1183   1.331   2.424   0.163
  394SOL    HW2 1184   1.472   2.370   0.101
  395SOL     OW 1185   0.527   2.124   0.327
  395SOL    HW1 1186   0.556   2.065   0.252
  395SOL    HW2 1187   0.512   2.217   0.292
  396SOL     OW 1188   1.784   0.077   1.601
  396SOL    HW1 1189   1.874   0.041   1.579
  396SOL    HW2 1190   1.791   0.173   1.628
  397SOL     OW 1191   1.630   2.959   1.080
  397SOL    HW1 1192   1.646   0.043   1.131
  397SOL    HW2 1193   1.551   2.970   1.021
  398SOL     OW 1194   0.918   1.962   1.401
  398SOL    HW1 1195   0.939   1.937   1.306
  398SOL    HW2 1196   0.998   2.005   1.443
  399SOL     OW 1197   0.414   2.677   1.254
  399SOL    HW1 1198   0.491   2.687   1.317
  399SOL    HW2 1199   0.373   2.586   1.265
  400SOL     OW 1200   1.270   2.244   1.268
  400SOL    HW1 1201   1.303   2.322   1.322
  400SOL    HW2 1202   1.178   2.263   1.234
  401SOL     OW 1203   0.560   2.403   0.863
  401SOL    HW1 1204   0.576   2.461   0.784
  401SOL    HW2 1205   0.619   2.433   0.939
  402SOL     OW 1206   1.580   2.493   0.472
  402SOL    HW1 1207   1.542   2.552   0.544
  402SOL    HW2 1208   1.636   2.548   0.410
  403SOL     OW 1209   0.410   2.606   1.600
  403SOL    HW1 1210   0.471   2.658   1.541
  403SOL    HW2 1211   0.452   2.518   1.622
  404SOL     OW 1212   1.591   2.639   1.674
  404SOL    HW1 1213   1.498   2.676   1.668
  404SOL    HW2 1214   1.649   2.683   1.606
  405SOL     OW 1215   1.000   1.973   1.760
  405SOL    HW1 1216   1.038   2.057   1.721
  405SOL    HW2 1217   1.051   1.894   1.726
  406SOL     OW 1218   0.499   1.910   1.742
  406SOL    HW1 1219   0.462   1.848   1.673
  406SOL    HW2 1220   0.432   1.982   1.762
  407SOL     OW 1221   0.587   2.729   1.038
  407SOL    HW1 1222   0.607   2.823   1.013
  407SOL    HW2 1223   0.516   2.727   1.109
  408SOL     OW 1224   1.355   2.718   1.037
  408SOL    HW1 1225   1.281   2.715   0.970
  408SOL    HW2 1226   1.399   2.628   1.043
  409SOL     OW 1227   1.208   2.393   0.276
  409SOL    HW1 1228   1.215   2.305   0.322
  409SOL    HW2 1229   1.164   2.459   0.337
  410SOL     OW 1230   0.301   2.068   1.239
  410SOL    HW1 1231   0.284   2.104   1.331
  410SOL    HW2 1232   0.283   1.970   1.239
  411SOL     OW 1233   0.055   0.169   1.276
  411SOL    HW1 1234   0.089   0.130   1.362
  411SOL    HW2 1235   0.032   0.265   1.290
  412SOL     OW 1236   0.732   2.496   1.064
  412SOL    HW1 1237   0.799   2.470   0.994
  412SOL    HW2 1238   0.695   2.586   1.042
  413SOL     OW 1239   1.734   2.816   1.847
  413SOL    HW1 1240   1.682   2.772   1.773
  413SOL    HW2 1241   1.675   2.828   1.927
  414SOL     OW 1242   0.301   1.930   0.624
  414SOL    HW1 1243   0.287   2.026   0.651
  414SOL    HW2 1244   0.307   1.873   0.706
  415SOL     OW 1245   1.616   2.233   0.371
  415SOL    HW1 1246   1.640   2.162   0.437
  415SOL    HW2 1247   1.583   2.314   0.420
  416SOL     OW 1248   1.023   2.622   0.968
  416SOL    HW1 1249   1.032   2.639   1.066
  416SOL    HW2 1250   0.995   2.527   0.954
  417SOL     OW 1251   0.352   2.782   1.798
  417SOL    HW1 1252   0.423   2.793   1.867
  417SOL    HW2 1253   0.378   2.711   1.733
  418SOL     OW 1254   1.516   2.153   0.127
  418SOL    HW1 1255   1.471   2.065   0.143
  418SOL    HW2 1256   1.567   2.180   0.208
  419SOL     OW 1257   1.298   2.689   0.038
  419SOL    HW1 1258   1.336   2.598   0.053
  419SOL    HW2 1259   1.324   2.721   2.947
  420SOL     OW 1260   0.315   2.677   0.954
  420SOL    HW1 1261   0.412   2.696   0.940
  420SOL    HW2 1262   0.304   2.584   0.989
  421SOL     OW 1263   0.339   2.375   1.010
  421SOL    HW1 1264   0.292   2.289   0.992
  421SOL    HW2 1265   0.416   2.386   0.948
  422SOL     OW 1266   1.136   2.243   1.679
  422SOL    HW1 1267   1.088   2.300   1.746
  422SOL    HW2 1268   1.230   2.275   1.670
  423SOL     OW 1269   1.159   2.068   1.473
  423SOL    HW1 1270   1.151   2.131   1.550
  423SOL    HW2 1271   1.194   2.118   1.393
  424SOL     OW 1272   0.991   2.668   1.236
  424SOL    HW1 1273   1.043   2.633   1.313
  424SOL    HW2 1274   0.902   2.622   1.232
  425SOL     OW 1275   0.051   2.432   1.111
  425SOL    HW1 1276   0.127   2.380   1.072
  425SOL    HW2 1277   0.036   2.403   1.206
  426SOL     OW 1278   0.200   2.380   1.721
  426SOL    HW1 1279   0.265   2.347   1.653
  426SOL    HW2 1280   0.147   2.456   1.683
  427SOL     OW 1281   1.373   2.808   1.660
  427SOL    HW1 1282   1.411   2.900   1.672
  427SOL    HW2 1283   1.374   2.784   1.563
  428SOL     OW 1284   0.818   2.436   0.344
  428SOL    HW1 1285   0.824   2.353   0.288
  428SOL    HW2 1286   0.733   2.485   0.324
  429SOL     OW 1287   1.646   2.464   1.194
  429SOL    HW1 1288   1.625   2.401   1.268
  429SOL    HW2 1289   1.736   2.442   1.156
  430SOL     OW 1290   0.688   2.321   1.265
  430SOL    HW1 1291   0.639   2.238   1.236
  430SOL    HW2 1292   0.694   2.384   1.188
  431SOL     OW 1293   0.439   2.360   0.210
  431SOL    HW1 1294   0.518   2.421   0.212
  431SOL    HW2 1295   0.356   2.414   0.193
  432SOL     OW 1296   0.163   0.003   1.468
  432SOL    HW1 1297   0.160   2.950   1.552
  432SOL    HW2 1298   0.174   2.941   1.390
  433SOL     OW 1299   1.355   2.909   1.220
  433SOL    HW1 1300   1.364   2.843   1.146
  433SOL    HW2 1301   1.269   2.960   1.209
  434SOL     OW 1302   1.300   2.719   0.310
  434SOL    HW1 1303   1.220   2.683   0.359
  434SOL    HW2 1304   1.291   2.701   0.212
  435SOL     OW 1305   0.898   1.940   0.129
  435SOL    HW1 1306   0.952   1.938   0.045
  435SOL    HW2 1307   0.951   1.899   0.204
  436SOL     OW 1308   1.716   1.998   0.513
  436SOL    HW1 1309   1.799   1.992   0.457
  436SOL    HW2 1310   1.699   1.911   0.558
  437SOL     OW 1311   1.289   2.791   0.679
  437SOL    HW1 1312   1.356   2.717   0.679
  437SOL    HW2 1313   1.309   2.854   0.603
  438SOL     OW 1314   1.840   2.035   0.965
  438SOL    HW1 1315   1.875   1.946   0.935
  438SOL    HW2 1316   1.747   2.048   0.930
  439SOL     OW 1317   0.268   2.182   0.722
  439SOL    HW1 1318   0.184   2.224   0.687
  439SOL    HW2 1319   0.261   2.168   0.820
  440SOL     OW 1320   0.811   2.863   1.370
  440SOL    HW1 1321   0.868   2.841   1.290
  440SOL    HW2 1322   0.835   2.954   1.403
  441SOL     OW 1323   0.908   2.786   0.294
  441SOL    HW1 1324   0.980   2.811   0.229
  441SOL    HW2 1325   0.942   2.715   0.356
  442SOL     OW 1326   1.018   2.100   0.966
  442SOL    HW1 1327   1.009   2.056   0.877
  442SOL    HW2 1328   1.013   2.031   1.038
  443SOL     OW 1329   1.718   2.252   1.380
  443SOL    HW1 1330   1.788   2.322   1.380
  443SOL    HW2 1331   1.746   2.176   1.321
  444SOL     OW 1332   0.113   2.869   1.707
  444SOL    HW1 1333   0.036   2.838   1.763
  444SOL    HW2 1334   0.199   2.849   1.755
  445SOL     OW 1335   0.673   2.060   1.496
  445SOL    HW1 1336   0.759   2.042   1.448
  445SOL    HW2 1337   0.691   2.079   1.592
  446SOL     OW 1338   0.061   2.190   0.046
  446SOL    HW1 1339   2.967   2.189   0.013
  446SOL    HW2 1340   0.111   2.265   0.003
  447SOL     OW 1341   1.435   2.719   1.403
  447SOL    HW1 1342   1.384   2.776   1.339
  447SOL    HW2 1343   1.532   2.721   1.379
  448SOL     OW 1344   0.069   2.050   0.323
  448SOL    HW1 1345   0.052   2.105   0.241
  448SOL    HW2 1346   0.142   1.985   0.305
  449SOL     OW 1347   1.149   0.221   0.102
  449SOL    HW1 1348   1.058   0.221   0.144
  449SOL    HW2 1349   1.218   0.225   0.174
  450SOL     OW 1350   0.614   2.696   1.432
  450SOL    HW1 1351   0.672   2.775   1.416
  450SOL    HW2 1352   0.671   2.614   1.441
  451SOL     OW 1353   0.717   2.427   1.709
  451SOL    HW1 1354   0.745   2.496   1.775
  451SOL    HW2 1355   0.765   2.341   1.727
  452SOL     OW 1356   1.677   2.744   1.255
  452SOL    HW1 1357   1.662   2.652   1.218
  452SOL    HW2 1358   1.663   2.811   1.182
  453SOL     OW 1359   1.224   2.181   0.457
  453SOL    HW1 1360   1.290   2.107   0.443
  453SOL    HW2 1361   1.249   2.233   0.538
  454SOL     OW 1362   0.592   2.594   0.656
  454SOL    HW1 1363   0.631   2.687   0.657
  454SOL    HW2 1364   0.512   2.593   0.597
  455SOL     OW 1365   1.766   2.219   1.646
  455SOL    HW1 1366   1.752   2.232   1.548
  455SOL    HW2 1367   1.694   2.161   1.683
  456SOL     OW 1368   1.735   2.795   1.514
  456SOL    HW1 1369   1.757   2.890   1.537
  456SOL    HW2 1370   1.726   2.786   1.415
  457SOL     OW 1371   0.879   2.828   0.862
  457SOL    HW1 1372   0.918   2.746   0.903
  457SOL    HW2 1373   0.826   2.878   0.931
  458SOL     OW 1374   1.110   2.891   0.082
  458SOL    HW1 1375   1.055   2.895   2.999
  458SOL    HW2 1376   1.169   2.810   0.079
  459SOL     OW 1377   1.812   2.050   1.235
  459SOL    HW1 1378   1.824   1.956   1.267
  459SOL    HW2 1379   1.825   2.053   1.136
  460SOL     OW 1380   0.430   2.291   0.524
  460SOL    HW1 1381   0.461   2.219   0.462
  460SOL    HW2 1382   0.383   2.250   0.602
  461SOL     OW 1383   0.328   2.412   1.287
  461SOL    HW1 1384   0.384   2.356   1.348
  461SOL    HW2 1385   0.349   2.388   1.192
  462SOL     OW 1386   1.431   2.083   1.118
  462SOL    HW1 1387   1.471   2.006   1.166
  462SOL    HW2 1388   1.375   2.137   1.182
  463SOL     OW 1389   1.006   1.887   1.150
  463SOL    HW1 1390   0.943   1.817   1.114
  463SOL    HW2 1391   1.099   1.851   1.151
  464SOL     OW 1392   1.352   1.913   0.165
  464SOL    HW1 1393   1.384   1.868   0.082
  464SOL    HW2 1394   1.262   1.876   0.190
  465SOL     OW 1395   1.299   2.322   0.688
  465SOL    HW1 1396   1.239   2.402   0.693
  465SOL    HW2 1397   1.301   2.276   0.777
  466SOL     OW 1398   1.589   2.075   0.879
  466SOL    HW1 1399   1.516   2.083   0.946
  466SOL    HW2 1400   1.591   2.157   0.821
  467SOL     OW 1401   0.011   2.900   0.287
  467SOL    HW1 1402   0.108   2.923   0.271
  467SOL    HW2 1403   0.004   2.842   0.368
  468SOL     OW 1404   0.225   2.507   1.965
  468SOL    HW1 1405   0.161   2.462   2.027
  468SOL    HW2 1406   0.229   2.457   1.879
  469SOL     OW 1407   0.234   2.125   2.841
  469SOL    HW1 1408   0.269   2.109   2.933
  469SOL    HW2 1409   0.141   2.089   2.833
  470SOL     OW 1410   0.016   2.247   2.501
  470SOL    HW1 1411   2.931   2.280   2.542
  470SOL    HW2 1412   3.000   2.157   2.460
  471SOL     OW 1413   1.134   2.567   2.569
  471SOL    HW1 1414   1.186   2.650   2.552
  471SOL    HW2 1415   1.077   2.580   2.651
  472SOL     OW 1416   1.758   2.469   2.093
  472SOL    HW1 1417   1.743   2.459   1.994
  472SOL    HW2 1418   1.728   2.386   2.139
  473SOL     OW 1419   0.779   0.011   2.884
  473SOL    HW1 1420   0.694   0.023   2.934
  473SOL    HW2 1421   0.798   0.093   2.829
  474SOL     OW 1422   0.663   2.848   2.552
  474SOL    HW1 1423   0.753   2.854   2.595
  474SOL    HW2 1424   0.621   2.939   2.550
  475SOL     OW 1425   1.616   2.312   2.594
  475SOL    HW1 1426   1.533   2.340   2.546
  475SOL    HW2 1427   1.641   2.382   2.661
  476SOL     OW 1428   0.216   0.304   2.341
  476SOL    HW1 1429   0.222   0.392   2.388
  476SOL    HW2 1430   0.181   0.234   2.404
  477SOL     OW 1431   0.236   2.947   2.744
  477SOL    HW1 1432   0.256   2.861   2.790
  477SOL    HW2 1433   0.198   0.012   2.810
  478SOL     OW 1434   0.611   2.825   1.987
  478SOL    HW1 1435   0.604   2.911   1.936
  478SOL    HW2 1436   0.658   2.842   2.074
  479SOL     OW 1437   0.122   2.497   2.430
  479SOL    HW1 1438   0.088   2.408   2.459
  479SOL    HW2 1439   0.116   2.562   2.506
  480SOL     OW 1440   1.696   2.804   2.485
  480SOL    HW1 1441   1.778   2.747   2.491
  480SOL    HW2 1442   1.681   2.830   2.389
  481SOL     OW 1443   0.646   0.239   2.556
  481SOL    HW1 1444   0.588   0.163   2.583
  481SOL    HW2 1445   0.601   0.291   2.483
  482SOL     OW 1446   0.808   1.862   2.363
  482SOL    HW1 1447   0.855   1.950   2.352
  482SOL    HW2 1448   0.711   1.877   2.377
  483SOL     OW 1449   0.204   2.810   0.096
  483SOL    HW1 1450   0.285   2.753   0.106
  483SOL    HW2 1451   0.122   2.752   0.097
  484SOL     OW 1452   1.543   2.837   2.047
  484SOL    HW1 1453   1.463   2.785   2.076
  484SOL    HW2 1454   1.586   2.880   2.127
  485SOL     OW 1455   0.595   2.585   2.127
  485SOL    HW1 1456   0.612   2.662   2.066
  485SOL    HW2 1457   0.525   2.610   2.194
  486SOL     OW 1458   1.293   2.195   2.802
  486SOL    HW1 1459   1.195   2.175   2.800
  486SOL    HW2 1460   1.332   2.157   2.885
  487SOL     OW 1461   1.048   2.561   2.290
  487SOL    HW1 1462   1.063   2.558   2.389
  487SOL    HW2 1463   0.962   2.514   2.269
  488SOL     OW 1464   0.100   2.674   2.629
  488SOL    HW1 1465   0.185   2.668   2.681
  488SOL    HW2 1466   0.045   2.751   2.664
  489SOL     OW 1467   0.877   2.207   2.056
  489SOL    HW1 1468   0.928   2.273   2.000
  489SOL    HW2 1469   0.896   2.114   2.025
  490SOL     OW 1470   0.552   2.051   2.760
  490SOL    HW1 1471   0.527   2.071   2.854
  490SOL    HW2 1472   0.556   2.136   2.707
  491SOL     OW 1473   1.798   2.916   2.730
  491SOL    HW1 1474   1.736   2.899   2.652
  491SOL    HW2 1475   1.744   2.924   2.814
  492SOL     OW 1476   1.471   2.598   2.588
  492SOL    HW1 1477   1.458   2.538   2.666
  492SOL    HW2 1478   1.551   2.657   2.605
  493SOL     OW 1479   1.401   1.969   2.289
  493SOL    HW1 1480   1.383   1.941   2.194
  493SOL    HW2 1481   1.499   1.981   2.302
  494SOL     OW 1482   0.390   2.555   2.342
  494SOL    HW1 1483   0.419   2.459   2.349
  494SOL    HW2 1484   0.293   2.562   2.361
  495SOL     OW 1485   0.621   1.987   1.972
  495SOL    HW1 1486   0.710   1.945   1.985
  495SOL    HW2 1487   0.580   1.953   1.887
  496SOL     OW 1488   0.921   2.376   2.758
  496SOL    HW1 1489   0.899   2.356   2.663
  496SOL    HW2 1490   0.962   2.295   2.800
  497SOL     OW 1491   0.545   1.925   2.371
  497SOL    HW1 1492   0.461   1.924   2.425
  497SOL    HW2 1493   0.546   2.005   2.312
  498SOL     OW 1494   0.295   1.904   2.041
  498SOL    HW1 1495   0.349   1.982   2.010
  498SOL    HW2 1496   0.354   1.836   2.084
  499SOL     OW 1497   0.936   2.101   2.332
  499SOL    HW1 1498   0.895   2.148   2.254
  499SOL    HW2 1499   1.035   2.110   2.328
  500SOL     OW 1500   1.030   2.410   1.878
  500SOL    HW1 1501   0.983   2.495   1.851
  500SOL    HW2 1502   1.093   2.429   1.952
  501SOL     OW 1503   0.870   2.319   2.501
  501SOL    HW1 1504   0.824   2.384   2.440
  501SOL    HW2 1505   0.890   2.235   2.450
  502SOL     OW 1506   1.012   1.910   2.617
  502SOL    HW1 1507   0.952   1.908   2.537
  502SOL    HW2 1508   0.993   1.830   2.674
  503SOL     OW 1509   1.425   0.008   2.735
  503SOL    HW1 1510   1.355   2.942   2.706
  503SOL    HW2 1511   1.451   0.065   2.656
  504SOL     OW 1512   1.488   2.445   2.824
  504SOL    HW1 1513   1.421   2.373   2.840
  504SOL    HW2 1514   1.525   2.477   2.912
  505SOL     OW 1515   1.841   2.675   2.251
  505SOL    HW1 1516   1.904   2.620   2.307
  505SOL    HW2 1517   1.817   2.623   2.169
  506SOL     OW 1518   1.390   2.436   1.935
  506SOL    HW1 1519   1.332   2.414   2.013
  506SOL    HW2 1520   1.483   2.402   1.953
  507SOL     OW 1521   0.529   2.124   2.185
  507SOL    HW1 1522   0.561   2.065   2.112
  507SOL    HW2 1523   0.516   2.217   2.151
  508SOL     OW 1524   1.630   2.964   2.939
  508SOL    HW1 1525   1.641   0.042   0.000
  508SOL    HW2 1526   1.550   2.979   2.881
  509SOL     OW 1527   0.559   2.401   2.726
  509SOL    HW1 1528   0.574   2.460   2.647
  509SOL    HW2 1529   0.616   2.432   2.802
  510SOL     OW 1530   1.580   2.492   2.333
  510SOL    HW1 1531   1.543   2.552   2.404
  510SOL    HW2 1532   1.635   2.547   2.270
  511SOL     OW 1533   0.574   2.727   2.881
  511SOL    HW1 1534   0.621   2.812   2.861
  511SOL    HW2 1535   0.536   2.731   2.973
  512SOL     OW 1536   1.210   2.391   2.136
  512SOL    HW1 1537   1.219   2.306   2.188
  512SOL    HW2 1538   1.166   2.461   2.192
  513SOL     OW 1539   0.319   2.063   0.087
  513SOL    HW1 1540   0.301   2.113   0.172
  513SOL    HW2 1541   0.291   1.968   0.097
  514SOL     OW 1542   0.733   2.502   2.919
  514SOL    HW1 1543   0.797   2.472   2.848
  514SOL    HW2 1544   0.695   2.591   2.893
  515SOL     OW 1545   0.302   1.930   2.486
  515SOL    HW1 1546   0.286   2.025   2.512
  515SOL    HW2 1547   0.305   1.873   2.567
  516SOL     OW 1548   1.612   2.232   2.233
  516SOL    HW1 1549   1.640   2.163   2.300
  516SOL    HW2 1550   1.584   2.315   2.282
  517SOL     OW 1551   1.020   2.623   2.824
  517SOL    HW1 1552   1.031   2.637   2.922
  517SOL    HW2 1553   0.995   2.528   2.806
  518SOL     OW 1554   1.533   2.136   1.990
  518SOL    HW1 1555   1.468   2.064   2.014
  518SOL    HW2 1556   1.568   2.179   2.073
  519SOL     OW 1557   1.299   2.691   1.898
  519SOL    HW1 1558   1.339   2.600   1.908
  519SOL    HW2 1559   1.324   2.729   1.809
  520SOL     OW 1560   0.313   2.675   2.813
  520SOL    HW1 1561   0.410   2.697   2.806
  520SOL    HW2 1562   0.303   2.583   2.851
  521SOL     OW 1563   0.327   2.380   2.865
  521SOL    HW1 1564   0.290   2.288   2.854
  521SOL    HW2 1565   0.410   2.390   2.810
  522SOL     OW 1566   0.991   2.630   0.090
  522SOL    HW1 1567   1.037   2.615   0.177
  522SOL    HW2 1568   0.892   2.630   0.104
  523SOL     OW 1569   0.815   2.430   2.207
  523SOL    HW1 1570   0.819   2.349   2.148
  523SOL    HW2 1571   0.735   2.485   2.183
  524SOL     OW 1572   0.699   2.316   0.107
  524SOL    HW1 1573   0.624   2.251   0.091
  524SOL    HW2 1574   0.699   2.385   0.035
  525SOL     OW 1575   0.469   2.359   2.050
  525SOL    HW1 1576   0.533   2.434   2.068
  525SOL    HW2 1577   0.375   2.394   2.052
  526SOL     OW 1578   1.300   2.722   2.170
  526SOL    HW1 1579   1.221   2.686   2.219
  526SOL    HW2 1580   1.290   2.703   2.073
  527SOL     OW 1581   1.718   1.999   2.376
  527SOL    HW1 1582   1.797   1.990   2.315
  527SOL    HW2 1583   1.700   1.911   2.420
  528SOL     OW 1584   1.290   2.793   2.541
  528SOL    HW1 1585   1.355   2.717   2.542
  528SOL    HW2 1586   1.309   2.853   2.463
  529SOL     OW 1587   1.840   2.037   2.822
  529SOL    HW1 1588   1.875   1.947   2.796
  529SOL    HW2 1589   1.746   2.047   2.790
  530SOL     OW 1590   0.269   2.182   2.580
  530SOL    HW1 1591   0.184   2.225   2.549
  530SOL    HW2 1592   0.265   2.167   2.679
  531SOL     OW 1593   0.909   2.760   2.128
  531SOL    HW1 1594   0.983   2.809   2.081
  531SOL    HW2 1595   0.948   2.701   2.199
  532SOL     OW 1596   1.027   2.101   2.816
  532SOL    HW1 1597   1.012   2.054   2.730
  532SOL    HW2 1598   1.014   2.037   2.892
  533SOL     OW 1599   0.090   2.192   1.914
  533SOL    HW1 1600   0.002   2.159   1.881
  533SOL    HW2 1601   0.113   2.278   1.868
  534SOL     OW 1602   0.072   2.050   2.182
  534SOL    HW1 1603   0.061   2.110   2.103
  534SOL    HW2 1604   0.145   1.984   2.165
  535SOL     OW 1605   1.152   0.244   1.987
  535SOL    HW1 1606   1.085   0.171   1.973
  535SOL    HW2 1607   1.214   0.220   2.062
  536SOL     OW 1608   1.724   2.713   0.063
  536SOL    HW1 1609   1.648   2.655   0.092
  536SOL    HW2 1610   1.692   2.808   0.054
  537SOL     OW 1611   1.223   2.181   2.318
  537SOL    HW1 1612   1.289   2.107   2.305
  537SOL    HW2 1613   1.247   2.234   2.399
  538SOL     OW 1614   0.594   2.594   2.519
  538SOL    HW1 1615   0.632   2.687   2.519
  538SOL    HW2 1616   0.513   2.592   2.459
  539SOL     OW 1617   0.874   2.826   2.722
  539SOL    HW1 1618   0.919   2.746   2.763
  539SOL    HW2 1619   0.835   2.882   2.794
  540SOL     OW 1620   1.094   2.862   1.952
  540SOL    HW1 1621   1.057   2.901   1.868
  540SOL    HW2 1622   1.160   2.790   1.930
  541SOL     OW 1623   1.828   2.056   0.090
  541SOL    HW1 1624   1.808   1.963   0.121
  541SOL    HW2 1625   1.828   2.058   2.990
  542SOL     OW 1626   0.428   2.290   2.382
  542SOL    HW1 1627   0.460   2.215   2.323
  542SOL    HW2 1628   0.383   2.252   2.463
  543SOL     OW 1629   1.351   1.914   2.027
  543SOL    HW1 1630   1.382   1.865   1.946
  543SOL    HW2 1631   1.261   1.879   2.054
  544SOL     OW 1632   1.297   2.320   2.550
  544SOL    HW1 1633   1.240   2.402   2.556
  544SOL    HW2 1634   1.302   2.276   2.640
  545SOL     OW 1635   1.589   2.078   2.741
  545SOL    HW1 1636   1.504   2.086   2.795
  545SOL    HW2 1637   1.596   2.157   2.681
  546SOL     OW 1638   0.027   2.927   2.153
  546SOL    HW1 1639   0.127   2.925   2.154
  546SOL    HW2 1640   2.992   2.861   2.220
  547SOL     OW 1641   2.091   0.635   0.115
  547SOL    HW1 1642   1.996   0.626   0.146
  547SOL    HW2 1643   2.102   0.592   0.026
  548SOL     OW 1644   2.079   0.279   1.000
  548SOL    HW1 1645   2.116   0.252   1.089
  548SOL    HW2 1646   1.988   0.240   0.989
  549SOL     OW 1647   1.866   0.378   0.646
  549SOL    HW1 1648   1.782   0.409   0.690
  549SOL    HW2 1649   1.846   0.302   0.584
  550SOL     OW 1650   2.428   1.276   1.169
  550SOL    HW1 1651   2.337   1.275   1.128
  550SOL    HW2 1652   2.446   1.367   1.208
  551SOL     OW 1653   2.622   1.146   1.029
  551SOL    HW1 1654   2.550   1.174   1.092
  551SOL    HW2 1655   2.663   1.227   0.986
  552SOL     OW 1656   2.717   0.788   1.818
  552SOL    HW1 1657   2.709   0.859   1.888
  552SOL    HW2 1658   2.739   0.831   1.730
  553SOL     OW 1659   2.548   1.012   0.656
  553SOL    HW1 1660   2.614   0.990   0.728
  553SOL    HW2 1661   2.471   1.062   0.696
  554SOL     OW 1662   2.562   1.157   1.807
  554SOL    HW1 1663   2.617   1.238   1.828
  554SOL    HW2 1664   2.474   1.185   1.771
  555SOL     OW 1665   2.192   1.434   1.067
  555SOL    HW1 1666   2.117   1.395   1.013
  555SOL    HW2 1667   2.252   1.487   1.007
  556SOL     OW 1668   2.307   0.398   1.495
  556SOL    HW1 1669   2.388   0.338   1.497
  556SOL    HW2 1670   2.224   0.342   1.505
  557SOL     OW 1671   2.085   1.713   0.477
  557SOL    HW1 1672   2.111   1.791   0.534
  557SOL    HW2 1673   2.151   1.703   0.402
  558SOL     OW 1674   2.982   1.344   1.688
  558SOL    HW1 1675   0.036   1.351   1.772
  558SOL    HW2 1676   2.935   1.256   1.686
  559SOL     OW 1677   2.089   1.440   0.536
  559SOL    HW1 1678   2.074   1.538   0.541
  559SOL    HW2 1679   2.023   1.393   0.594
  560SOL     OW 1680   2.111   1.090   0.891
  560SOL    HW1 1681   2.115   1.000   0.934
  560SOL    HW2 1682   2.052   1.150   0.945
  561SOL     OW 1683   2.479   1.790   1.436
  561SOL    HW1 1684   2.390   1.771   1.478
  561SOL    HW2 1685   2.507   1.884   1.457
  562SOL     OW 1686   2.462   0.973   0.141
  562SOL    HW1 1687   2.473   1.051   0.079
  562SOL    HW2 1688   2.503   0.995   0.230
  563SOL     OW 1689   1.981   0.644   0.564
  563SOL    HW1 1690   1.935   0.557   0.581
  563SOL    HW2 1691   1.972   0.703   0.645
  564SOL     OW 1692   1.881   1.587   0.121
  564SOL    HW1 1693   1.888   1.492   0.150
  564SOL    HW2 1694   1.875   1.646   0.202
  565SOL     OW 1695   1.980   0.740   1.589
  565SOL    HW1 1696   2.075   0.746   1.619
  565SOL    HW2 1697   1.940   0.832   1.586
  566SOL     OW 1698   2.471   1.377   0.733
  566SOL    HW1 1699   2.425   1.289   0.743
  566SOL    HW2 1700   2.456   1.411   0.640
  567SOL     OW 1701   2.680   0.013   0.498
  567SOL    HW1 1702   2.710   0.108   0.494
  567SOL    HW2 1703   2.581   0.009   0.504
  568SOL     OW 1704   2.057   0.973   1.263
  568SOL    HW1 1705   2.145   0.927   1.251
  568SOL    HW2 1706   1.983   0.911   1.235
  569SOL     OW 1707   2.185   0.254   1.798
  569SOL    HW1 1708   2.246   0.331   1.816
  569SOL    HW2 1709   2.096   0.271   1.839
  570SOL     OW 1710   2.456   0.725   0.266
  570SOL    HW1 1711   2.472   0.806   0.208
  570SOL    HW2 1712   2.386   0.746   0.334
  571SOL     OW 1713   2.653   0.620   1.457
  571SOL    HW1 1714   2.627   0.599   1.551
  571SOL    HW2 1715   2.613   0.553   1.395
  572SOL     OW 1716   2.834   0.886   1.572
  572SOL    HW1 1717   2.871   0.797   1.545
  572SOL    HW2 1718   2.780   0.924   1.497
  573SOL     OW 1719   2.844   0.384   1.258
  573SOL    HW1 1720   2.772   0.443   1.293
  573SOL    HW2 1721   2.829   0.368   1.160
  574SOL     OW 1722   2.893   0.710   0.416
  574SOL    HW1 1723   2.930   0.702   0.508
  574SOL    HW2 1724   2.814   0.649   0.406
  575SOL     OW 1725   1.950   0.820   0.774
  575SOL    HW1 1726   2.038   0.805   0.819
  575SOL    HW2 1727   1.907   0.901   0.812
  576SOL     OW 1728   1.993   1.833   1.576
  576SOL    HW1 1729   1.986   1.813   1.673
  576SOL    HW2 1730   1.901   1.845   1.537
  577SOL     OW 1731   2.783   0.339   0.217
  577SOL    HW1 1732   2.779   0.405   0.142
  577SOL    HW2 1733   2.762   0.248   0.182
  578SOL     OW 1734   2.380   0.192   0.913
  578SOL    HW1 1735   2.398   0.209   1.009
  578SOL    HW2 1736   2.406   0.272   0.859
  579SOL     OW 1737   2.865   1.448   0.472
  579SOL    HW1 1738   2.826   1.526   0.423
  579SOL    HW2 1739   2.867   1.469   0.570
  580SOL     OW 1740   2.216   1.803   0.853
  580SOL    HW1 1741   2.262   1.715   0.865
  580SOL    HW2 1742   2.282   1.877   0.863
  581SOL     OW 1743   2.182   0.951   0.240
  581SOL    HW1 1744   2.270   0.975   0.200
  581SOL    HW2 1745   2.153   0.862   0.204
  582SOL     OW 1746   2.323   1.258   1.734
  582SOL    HW1 1747   2.293   1.268   1.639
  582SOL    HW2 1748   2.244   1.259   1.795
  583SOL     OW 1749   2.063   0.292   1.499
  583SOL    HW1 1750   1.978   0.345   1.487
  583SOL    HW2 1751   2.052   0.228   1.575
  584SOL     OW 1752   2.329   1.731   0.329
  584SOL    HW1 1753   2.359   1.796   0.399
  584SOL    HW2 1754   2.399   1.724   0.258
  585SOL     OW 1755   2.117   1.792   1.234
  585SOL    HW1 1756   2.169   1.726   1.288
  585SOL    HW2 1757   2.097   1.753   1.144
  586SOL     OW 1758   2.802   1.696   0.901
  586SOL    HW1 1759   2.871   1.631   0.931
  586SOL    HW2 1760   2.747   1.655   0.828
  587SOL     OW 1761   2.249   0.694   0.479
  587SOL    HW1 1762   2.288   0.602   0.485
  587SOL    HW2 1763   2.152   0.692   0.504
  588SOL     OW 1764   2.474   0.114   0.114
  588SOL    HW1 1765   2.573   0.108   0.123
  588SOL    HW2 1766   2.450   0.117   0.017
  589SOL     OW 1767   2.639   0.272   1.753
  589SOL    HW1 1768   2.705   0.201   1.777
  589SOL    HW2 1769   2.571   0.280   1.826
  590SOL     OW 1770   2.745   1.517   1.192
  590SOL    HW1 1771   2.722   1.484   1.100
  590SOL    HW2 1772   2.806   1.451   1.236
  591SOL     OW 1773   2.668   1.406   0.930
  591SOL    HW1 1774   2.758   1.395   0.889
  591SOL    HW2 1775   2.598   1.395   0.860
  592SOL     OW 1776   2.784   0.505   0.902
  592SOL    HW1 1777   2.754   0.494   0.807
  592SOL    HW2 1778   2.829   0.422   0.933
  593SOL     OW 1779   2.399   0.053   0.497
  593SOL    HW1 1780   2.311   0.044   0.544
  593SOL    HW2 1781   2.400   0.137   0.443
  594SOL     OW 1782   0.311   1.161   0.046
  594SOL    HW1 1783   0.319   1.096   0.122
  594SOL    HW2 1784   0.235   1.223   0.063
  595SOL     OW 1785   2.165   0.074   0.189
  595SOL    HW1 1786   2.238   0.141   0.173
  595SOL    HW2 1787   2.205   2.987   0.216
  596SOL     OW 1788   2.813   0.248   0.472
  596SOL    HW1 1789   2.760   0.287   0.397
  596SOL    HW2 1790   2.899   0.210   0.437
  597SOL     OW 1791   0.082   1.577   0.799
  597SOL    HW1 1792   0.108   1.626   0.716
  597SOL    HW2 1793   0.163   1.557   0.853
  598SOL     OW 1794   2.325   1.145   0.740
  598SOL    HW1 1795   2.251   1.128   0.805
  598SOL    HW2 1796   2.292   1.128   0.647
  599SOL     OW 1797   2.894   0.521   0.018
  599SOL    HW1 1798   2.844   0.604   2.992
  599SOL    HW2 1799   2.950   0.539   0.098
  600SOL     OW 1800   1.937   0.558   1.389
  600SOL    HW1 1801   2.030   0.551   1.354
  600SOL    HW2 1802   1.932   0.630   1.458
  601SOL     OW 1803   2.429   0.222   1.172
  601SOL    HW1 1804   2.465   0.147   1.228
  601SOL    HW2 1805   2.333   0.237   1.195
  602SOL     OW 1806   2.744   0.465   0.635
  602SOL    HW1 1807   2.681   0.524   0.585
  602SOL    HW2 1808   2.744   0.373   0.594
  603SOL     OW 1809   2.863   0.049   0.763
  603SOL    HW1 1810   2.819   0.053   0.673
  603SOL    HW2 1811   2.846   2.961   0.805
  604SOL     OW 1812   2.352   1.396   0.159
  604SOL    HW1 1813   2.277   1.371   0.221
  604SOL    HW2 1814   2.315   1.408   0.067
  605SOL     OW 1815   2.394   0.265   0.327
  605SOL    HW1 1816   2.427   0.204   0.255
  605SOL    HW2 1817   2.373   0.354   0.288
  606SOL     OW 1818   2.780   0.108   1.402
  606SOL    HW1 1819   2.807   0.089   1.307
  606SOL    HW2 1820   2.850   0.164   1.446
  607SOL     OW 1821   2.840   1.108   1.726
  607SOL    HW1 1822   2.744   1.131   1.736
  607SOL    HW2 1823   2.850   1.037   1.656
  608SOL     OW 1824   2.565   1.057   0.375
  608SOL    HW1 1825   2.549   1.052   0.474
  608SOL    HW2 1826   2.651   1.009   0.354
  609SOL     OW 1827   2.277   0.812   1.252
  609SOL    HW1 1828   2.353   0.826   1.315
  609SOL    HW2 1829   2.236   0.723   1.269
  610SOL     OW 1830   1.929   1.566   1.335
  610SOL    HW1 1831   1.883   1.649   1.304
  610SOL    HW2 1832   2.027   1.583   1.342
  611SOL     OW 1833   2.224   1.104   0.493
  611SOL    HW1 1834   2.220   1.186   0.435
  611SOL    HW2 1835   2.223   1.022   0.436
  612SOL     OW 1836   2.421   0.544   0.865
  612SOL    HW1 1837   2.439   0.601   0.785
  612SOL    HW2 1838   2.482   0.571   0.939
  613SOL     OW 1839   2.215   1.518   1.322
  613SOL    HW1 1840   2.194   1.475   1.234
  613SOL    HW2 1841   2.313   1.536   1.328
  614SOL     OW 1842   2.273   0.747   1.601
  614SOL    HW1 1843   2.334   0.798   1.541
  614SOL    HW2 1844   2.312   0.657   1.620
  615SOL     OW 1845   2.870   0.111   1.762
  615SOL    HW1 1846   2.892   0.195   1.713
  615SOL    HW2 1847   2.908   0.033   1.713
  616SOL     OW 1848   2.362   0.055   1.747
  616SOL    HW1 1849   2.333   2.990   1.677
  616SOL    HW2 1850   2.289   0.121   1.764
  617SOL     OW 1851   2.441   0.871   1.031
  617SOL    HW1 1852   2.479   0.963   1.022
  617SOL    HW2 1853   2.380   0.868   1.110
  618SOL     OW 1854   0.064   0.533   0.276
  618SOL    HW1 1855   0.086   0.445   0.320
  618SOL    HW2 1856   0.031   0.597   0.345
  619SOL     OW 1857   2.165   0.206   1.244
  619SOL    HW1 1858   2.135   0.246   1.330
  619SOL    HW2 1859   2.138   0.110   1.240
  620SOL     OW 1860   1.904   1.308   1.280
  620SOL    HW1 1861   1.946   1.254   1.354
  620SOL    HW2 1862   1.916   1.405   1.300
  621SOL     OW 1863   2.591   0.633   1.062
  621SOL    HW1 1864   2.665   0.609   0.999
  621SOL    HW2 1865   2.559   0.726   1.043
  622SOL     OW 1866   2.170   0.057   0.638
  622SOL    HW1 1867   2.166   0.154   0.660
  622SOL    HW2 1868   2.152   0.003   0.720
  623SOL     OW 1869   2.866   0.768   0.972
  623SOL    HW1 1870   2.898   0.780   1.067
  623SOL    HW2 1871   2.866   0.671   0.949
  624SOL     OW 1872   2.835   1.566   1.702
  624SOL    HW1 1873   2.823   1.611   1.613
  624SOL    HW2 1874   2.893   1.485   1.691
  625SOL     OW 1875   2.213   0.914   1.804
  625SOL    HW1 1876   2.296   0.938   1.855
  625SOL    HW2 1877   2.237   0.851   1.730
  626SOL     OW 1878   2.910   1.343   0.837
  626SOL    HW1 1879   2.910   1.261   0.780
  626SOL    HW2 1880   2.985   1.403   0.811
  627SOL     OW 1881   2.177   0.811   0.949
  627SOL    HW1 1882   2.273   0.839   0.945
  627SOL    HW2 1883   2.170   0.720   0.989
  628SOL     OW 1884   2.199   0.516   1.010
  628SOL    HW1 1885   2.155   0.428   0.993
  628SOL    HW2 1886   2.277   0.527   0.949
  629SOL     OW 1887   2.971   0.374   1.665
  629SOL    HW1 1888   2.921   0.440   1.721
  629SOL    HW2 1889   0.066   0.403   1.658
  630SOL     OW 1890   1.868   1.320   0.189
  630SOL    HW1 1891   1.774   1.338   0.160
  630SOL    HW2 1892   1.874   1.229   0.229
  631SOL     OW 1893   1.953   1.794   0.932
  631SOL    HW1 1894   1.915   1.710   0.895
  631SOL    HW2 1895   2.048   1.805   0.901
  632SOL     OW 1896   2.364   1.573   0.906
  632SOL    HW1 1897   2.434   1.640   0.929
  632SOL    HW2 1898   2.407   1.498   0.855
  633SOL     OW 1899   2.862   0.801   1.248
  633SOL    HW1 1900   2.909   0.746   1.317
  633SOL    HW2 1901   2.770   0.764   1.232
  634SOL     OW 1902   1.899   0.540   1.117
  634SOL    HW1 1903   1.984   0.520   1.067
  634SOL    HW2 1904   1.920   0.555   1.213
  635SOL     OW 1905   2.053   0.519   1.724
  635SOL    HW1 1906   2.111   0.477   1.654
  635SOL    HW2 1907   1.996   0.589   1.682
  636SOL     OW 1908   2.676   0.572   0.345
  636SOL    HW1 1909   2.684   0.489   0.289
  636SOL    HW2 1910   2.591   0.620   0.322
  637SOL     OW 1911   2.126   1.559   1.744
  637SOL    HW1 1912   2.086   1.623   1.809
  637SOL    HW2 1913   2.108   1.465   1.775
  638SOL     OW 1914   2.548   0.462   1.266
  638SOL    HW1 1915   2.503   0.377   1.237
  638SOL    HW2 1916   2.556   0.524   1.188
  639SOL     OW 1917   2.799   1.686   1.462
  639SOL    HW1 1918   2.766   1.643   1.378
  639SOL    HW2 1919   2.791   1.785   1.455
  640SOL     OW 1920   2.307   0.496   0.207
  640SOL    HW1 1921   2.381   0.563   0.213
  640SOL    HW2 1922   2.221   0.543   0.190
  641SOL     OW 1923   2.013   1.135   1.468
  641SOL    HW1 1924   2.027   1.082   1.552
  641SOL    HW2 1925   2.031   1.078   1.389
  642SOL     OW 1926   1.944   1.264   1.017
  642SOL    HW1 1927   1.935   1.272   1.116
  642SOL    HW2 1928   1.868   1.211   0.980
  643SOL     OW 1929   2.541   1.663   1.720
  643SOL    HW1 1930   2.488   1.747   1.722
  643SOL    HW2 1931   2.605   1.666   1.643
  644SOL     OW 1932   2.763   0.083   0.135
  644SOL    HW1 1933   2.816   0.060   0.054
  644SOL    HW2 1934   2.808   0.047   0.217
  645SOL     OW 1935   1.996   1.794   1.846
  645SOL    HW1 1936   1.943   1.725   1.895
  645SOL    HW2 1937   2.052   1.846   1.911
  646SOL     OW 1938   2.684   1.267   1.427
  646SOL    HW1 1939   2.680   1.313   1.515
  646SOL    HW2 1940   2.606   1.295   1.371
  647SOL     OW 1941   2.533   1.609   0.157
  647SOL    HW1 1942   2.539   1.627   0.059
  647SOL    HW2 1943   2.480   1.525   0.172
  648SOL     OW 1944   2.136   0.347   0.752
  648SOL    HW1 1945   2.045   0.371   0.717
  648SOL    HW2 1946   2.128   0.310   0.844
  649SOL     OW 1947   2.688   1.007   1.375
  649SOL    HW1 1948   2.729   0.996   1.285
  649SOL    HW2 1949   2.690   1.103   1.402
  650SOL     OW 1950   2.784   0.931   0.307
  650SOL    HW1 1951   2.837   0.951   0.224
  650SOL    HW2 1952   2.818   0.846   0.348
  651SOL     OW 1953   2.229   1.297   1.491
  651SOL    HW1 1954   2.221   1.382   1.440
  651SOL    HW2 1955   2.149   1.239   1.475
  652SOL     OW 1956   2.906   1.086   0.719
  652SOL    HW1 1957   2.827   1.039   0.758
  652SOL    HW2 1958   2.943   1.031   0.644
  653SOL     OW 1959   2.876   0.237   0.968
  653SOL    HW1 1960   2.872   0.189   0.881
  653SOL    HW2 1961   2.873   0.171   1.043
  654SOL     OW 1962   2.457   1.487   0.485
  654SOL    HW1 1963   2.501   1.433   0.414
  654SOL    HW2 1964   2.401   1.559   0.443
  655SOL     OW 1965   2.123   1.343   0.294
  655SOL    HW1 1966   2.032   1.345   0.253
  655SOL    HW2 1967   2.120   1.387   0.384
  656SOL     OW 1968   1.972   1.014   1.723
  656SOL    HW1 1969   1.892   0.990   1.777
  656SOL    HW2 1970   2.054   0.979   1.768
  657SOL     OW 1971   2.531   0.205   1.492
  657SOL    HW1 1972   2.617   0.184   1.446
  657SOL    HW2 1973   2.547   0.216   1.590
  658SOL     OW 1974   1.920   0.192   0.325
  658SOL    HW1 1975   1.898   0.245   0.244
  658SOL    HW2 1976   2.007   0.144   0.310
  659SOL     OW 1977   2.478   0.836   1.430
  659SOL    HW1 1978   2.534   0.918   1.416
  659SOL    HW2 1979   2.538   0.756   1.438
  660SOL     OW 1980   2.578   0.564   1.709
  660SOL    HW1 1981   2.606   0.633   1.776
  660SOL    HW2 1982   2.628   0.479   1.727
  661SOL     OW 1983   2.247   1.740   1.561
  661SOL    HW1 1984   2.157   1.783   1.553
  661SOL    HW2 1985   2.238   1.650   1.603
  662SOL     OW 1986   2.457   0.743   0.658
  662SOL    HW1 1987   2.499   0.833   0.647
  662SOL    HW2 1988   2.375   0.737   0.600
  663SOL     OW 1989   2.758   1.377   0.058
  663SOL    HW1 1990   2.681   1.386   0.121
  663SOL    HW2 1991   2.747   1.442   2.982
  664SOL     OW 1992   2.521   1.796   0.954
  664SOL    HW1 1993   2.489   1.887   0.927
  664SOL    HW2 1994   2.619   1.790   0.940
  665SOL     OW 1995   2.719   0.959   0.859
  665SOL    HW1 1996   2.772   0.885   0.901
  665SOL    HW2 1997   2.689   1.023   0.931
  666SOL     OW 1998   2.963   1.020   0.073
  666SOL    HW1 1999   2.918   1.047   2.988
  666SOL    HW2 2000   0.018   0.938   0.057
  667SOL     OW 2001   2.087   1.306   1.854
  667SOL    HW1 2002   2.015   1.244   1.822
  667SOL    HW2 2003   2.076   1.324   1.951
  668SOL     OW 2004   1.944   1.238   0.660
  668SOL    HW1 2005   1.942   1.187   0.746
  668SOL    HW2 2006   2.018   1.203   0.602
  669SOL     OW 2007   2.536   1.399   1.623
  669SOL    HW1 2008   2.457   1.348   1.656
  669SOL    HW2 2009   2.536   1.491   1.663
  670SOL     OW 2010   2.326   0.429   0.541
  670SOL    HW1 2011   2.321   0.368   0.462
  670SOL    HW2 2012   2.260   0.400   0.610
  671SOL     OW 2013   2.184   0.546   1.287
  671SOL    HW1 2014   2.241   0.494   1.351
  671SOL    HW2 2015   2.212   0.526   1.193
  672SOL     OW 2016   2.680   1.584   0.684
  672SOL    HW1 2017   2.696   1.609   0.589
  672SOL    HW2 2018   2.600   1.525   0.690
  673SOL     OW 2019   2.855   0.023   1.152
  673SOL    HW1 2020   2.807   2.952   1.101
  673SOL    HW2 2021   2.951   2.996   1.162
  674SOL     OW 2022   2.629   1.330   0.310
  674SOL    HW1 2023   2.593   1.237   0.323
  674SOL    HW2 2024   2.719   1.336   0.352
  675SOL     OW 2025   2.483   1.564   1.284
  675SOL    HW1 2026   2.484   1.648   1.340
  675SOL    HW2 2027   2.573   1.553   1.241
  676SOL     OW 2028   1.903   1.076   0.302
  676SOL    HW1 2029   2.002   1.072   0.287
  676SOL    HW2 2030   1.869   0.985   0.327
  677SOL     OW 2031   2.734   1.647   0.348
  677SOL    HW1 2032   2.665   1.625   0.279
  677SOL    HW2 2033   2.707   1.730   0.398
  678SOL     OW 2034   2.092   0.624   1.981
  678SOL    HW1 2035   1.999   0.625   2.017
  678SOL    HW2 2036   2.090   0.593   1.886
  679SOL     OW 2037   2.085   0.275   2.869
  679SOL    HW1 2038   2.112   0.247   2.961
  679SOL    HW2 2039   1.993   0.240   2.849
  680SOL     OW 2040   1.867   0.378   2.508
  680SOL    HW1 2041   1.782   0.410   2.551
  680SOL    HW2 2042   1.846   0.302   2.446
  681SOL     OW 2043   2.620   1.148   2.886
  681SOL    HW1 2044   2.551   1.177   2.953
  681SOL    HW2 2045   2.667   1.228   2.848
  682SOL     OW 2046   2.548   1.012   2.517
  682SOL    HW1 2047   2.614   0.990   2.590
  682SOL    HW2 2048   2.470   1.062   2.556
  683SOL     OW 2049   2.204   1.432   2.927
  683SOL    HW1 2050   2.120   1.399   2.883
  683SOL    HW2 2051   2.255   1.491   2.864
  684SOL     OW 2052   2.086   1.711   2.341
  684SOL    HW1 2053   2.112   1.791   2.395
  684SOL    HW2 2054   2.146   1.704   2.262
  685SOL     OW 2055   2.091   1.438   2.396
  685SOL    HW1 2056   2.076   1.537   2.401
  685SOL    HW2 2057   2.024   1.391   2.455
  686SOL     OW 2058   2.112   1.091   2.754
  686SOL    HW1 2059   2.112   1.000   2.795
  686SOL    HW2 2060   2.052   1.152   2.806
  687SOL     OW 2061   2.458   0.975   1.991
  687SOL    HW1 2062   2.491   1.039   1.921
  687SOL    HW2 2063   2.501   0.997   2.078
  688SOL     OW 2064   1.981   0.644   2.427
  688SOL    HW1 2065   1.934   0.558   2.442
  688SOL    HW2 2066   1.972   0.703   2.508
  689SOL     OW 2067   1.885   1.599   1.986
  689SOL    HW1 2068   1.875   1.500   2.003
  689SOL    HW2 2069   1.863   1.649   2.070
  690SOL     OW 2070   2.470   1.376   2.592
  690SOL    HW1 2071   2.422   1.288   2.602
  690SOL    HW2 2072   2.454   1.411   2.499
  691SOL     OW 2073   2.681   0.012   2.357
  691SOL    HW1 2074   2.710   0.108   2.356
  691SOL    HW2 2075   2.582   0.008   2.367
  692SOL     OW 2076   2.458   0.726   2.127
  692SOL    HW1 2077   2.473   0.803   2.065
  692SOL    HW2 2078   2.387   0.750   2.193
  693SOL     OW 2079   2.894   0.707   2.283
  693SOL    HW1 2080   2.926   0.698   2.377
  693SOL    HW2 2081   2.813   0.649   2.269
  694SOL     OW 2082   1.950   0.820   2.636
  694SOL    HW1 2083   2.038   0.805   2.682
  694SOL    HW2 2084   1.906   0.901   2.674
  695SOL     OW 2085   2.734   0.346   2.055
  695SOL    HW1 2086   2.790   0.410   2.001
  695SOL    HW2 2087   2.760   0.252   2.032
  696SOL     OW 2088   2.398   0.192   2.798
  696SOL    HW1 2089   2.389   0.238   2.886
  696SOL    HW2 2090   2.408   0.261   2.726
  697SOL     OW 2091   2.864   1.447   2.334
  697SOL    HW1 2092   2.825   1.525   2.285
  697SOL    HW2 2093   2.870   1.468   2.432
  698SOL     OW 2094   2.216   1.801   2.713
  698SOL    HW1 2095   2.262   1.714   2.727
  698SOL    HW2 2096   2.281   1.876   2.724
  699SOL     OW 2097   2.185   0.950   2.107
  699SOL    HW1 2098   2.271   0.978   2.064
  699SOL    HW2 2099   2.152   0.866   2.063
  700SOL     OW 2100   2.329   1.740   2.183
  700SOL    HW1 2101   2.363   1.796   2.259
  700SOL    HW2 2102   2.405   1.717   2.122
  701SOL     OW 2103   2.124   1.798   0.098
  701SOL    HW1 2104   2.168   1.730   0.157
  701SOL    HW2 2105   2.083   1.753   0.019
  702SOL     OW 2106   2.798   1.698   2.761
  702SOL    HW1 2107   2.869   1.637   2.797
  702SOL    HW2 2108   2.749   1.651   2.687
  703SOL     OW 2109   2.250   0.694   2.343
  703SOL    HW1 2110   2.287   0.601   2.348
  703SOL    HW2 2111   2.152   0.692   2.366
  704SOL     OW 2112   2.481   0.124   1.973
  704SOL    HW1 2113   2.574   0.089   1.983
  704SOL    HW2 2114   2.445   0.099   1.883
  705SOL     OW 2115   2.662   1.406   2.781
  705SOL    HW1 2116   2.754   1.398   2.744
  705SOL    HW2 2117   2.595   1.394   2.707
  706SOL     OW 2118   2.783   0.512   2.756
  706SOL    HW1 2119   2.754   0.493   2.662
  706SOL    HW2 2120   2.820   0.429   2.798
  707SOL     OW 2121   2.401   0.057   2.362
  707SOL    HW1 2122   2.312   0.045   2.406
  707SOL    HW2 2123   2.399   0.138   2.302
  708SOL     OW 2124   2.156   0.036   2.052
  708SOL    HW1 2125   2.201   0.116   2.012
  708SOL    HW2 2126   2.226   2.970   2.081
  709SOL     OW 2127   2.812   0.250   2.331
  709SOL    HW1 2128   2.752   0.284   2.258
  709SOL    HW2 2129   2.895   0.212   2.292
  710SOL     OW 2130   0.082   1.574   2.661
  710SOL    HW1 2131   0.109   1.628   2.581
  710SOL    HW2 2132   0.162   1.558   2.719
  711SOL     OW 2133   2.325   1.144   2.602
  711SOL    HW1 2134   2.251   1.129   2.667
  711SOL    HW2 2135   2.292   1.127   2.509
  712SOL     OW 2136   2.892   0.553   1.873
  712SOL    HW1 2137   2.841   0.637   1.850
  712SOL    HW2 2138   2.945   0.568   1.956
  713SOL     OW 2139   2.744   0.464   2.496
  713SOL    HW1 2140   2.681   0.524   2.445
  713SOL    HW2 2141   2.744   0.373   2.454
  714SOL     OW 2142   2.861   0.050   2.624
  714SOL    HW1 2143   2.818   0.049   2.534
  714SOL    HW2 2144   2.848   2.961   2.668
  715SOL     OW 2145   2.355   1.403   2.030
  715SOL    HW1 2146   2.273   1.375   2.081
  715SOL    HW2 2147   2.334   1.402   1.932
  716SOL     OW 2148   2.395   0.266   2.186
  716SOL    HW1 2149   2.422   0.202   2.114
  716SOL    HW2 2150   2.378   0.356   2.146
  717SOL     OW 2151   2.569   1.055   2.234
  717SOL    HW1 2152   2.552   1.049   2.333
  717SOL    HW2 2153   2.651   1.003   2.211
  718SOL     OW 2154   2.224   1.103   2.356
  718SOL    HW1 2155   2.222   1.185   2.298
  718SOL    HW2 2156   2.223   1.021   2.299
  719SOL     OW 2157   2.422   0.541   2.728
  719SOL    HW1 2158   2.437   0.598   2.647
  719SOL    HW2 2159   2.480   0.573   2.803
  720SOL     OW 2160   2.436   0.868   2.880
  720SOL    HW1 2161   2.485   0.953   2.862
  720SOL    HW2 2162   2.396   0.872   2.972
  721SOL     OW 2163   0.058   0.529   2.138
  721SOL    HW1 2164   0.086   0.447   2.186
  721SOL    HW2 2165   0.028   0.598   2.204
  722SOL     OW 2166   2.593   0.641   2.918
  722SOL    HW1 2167   2.661   0.612   2.850
  722SOL    HW2 2168   2.559   0.731   2.894
  723SOL     OW 2169   2.172   0.058   2.501
  723SOL    HW1 2170   2.163   0.155   2.524
  723SOL    HW2 2171   2.151   0.002   2.582
  724SOL     OW 2172   2.871   0.772   2.830
  724SOL    HW1 2173   2.890   0.775   2.928
  724SOL    HW2 2174   2.864   0.676   2.801
  725SOL     OW 2175   2.908   1.342   2.698
  725SOL    HW1 2176   2.911   1.262   2.639
  725SOL    HW2 2177   2.983   1.404   2.674
  726SOL     OW 2178   2.175   0.811   2.813
  726SOL    HW1 2179   2.271   0.838   2.807
  726SOL    HW2 2180   2.168   0.718   2.849
  727SOL     OW 2181   2.192   0.523   2.867
  727SOL    HW1 2182   2.148   0.434   2.858
  727SOL    HW2 2183   2.273   0.527   2.808
  728SOL     OW 2184   1.866   1.324   2.058
  728SOL    HW1 2185   1.775   1.341   2.019
  728SOL    HW2 2186   1.872   1.228   2.088
  729SOL     OW 2187   1.954   1.798   2.792
  729SOL    HW1 2188   1.914   1.712   2.759
  729SOL    HW2 2189   2.049   1.804   2.762
  730SOL     OW 2190   2.367   1.575   2.766
  730SOL    HW1 2191   2.438   1.642   2.787
  730SOL    HW2 2192   2.408   1.498   2.717
  731SOL     OW 2193   2.855   0.768   0.099
  731SOL    HW1 2194   2.898   0.752   0.188
  731SOL    HW2 2195   2.756   0.769   0.110
  732SOL     OW 2196   2.674   0.568   2.207
  732SOL    HW1 2197   2.679   0.485   2.150
  732SOL    HW2 2198   2.593   0.620   2.181
  733SOL     OW 2199   2.565   0.450   0.100
  733SOL    HW1 2200   2.479   0.399   0.094
  733SOL    HW2 2201   2.563   0.525   0.035
  734SOL     OW 2202   2.333   0.497   2.054
  734SOL    HW1 2203   2.393   0.576   2.069
  734SOL    HW2 2204   2.238   0.528   2.046
  735SOL     OW 2205   1.943   1.266   2.884
  735SOL    HW1 2206   1.937   1.269   2.983
  735SOL    HW2 2207   1.866   1.212   2.848
  736SOL     OW 2208   2.533   1.613   2.016
  736SOL    HW1 2209   2.545   1.625   1.917
  736SOL    HW2 2210   2.483   1.528   2.033
  737SOL     OW 2211   2.135   0.341   2.613
  737SOL    HW1 2212   2.045   0.371   2.580
  737SOL    HW2 2213   2.126   0.309   2.707
  738SOL     OW 2214   2.782   0.916   2.155
  738SOL    HW1 2215   2.836   0.939   2.073
  738SOL    HW2 2216   2.819   0.833   2.196
  739SOL     OW 2217   2.906   1.083   2.582
  739SOL    HW1 2218   2.825   1.038   2.618
  739SOL    HW2 2219   2.943   1.031   2.505
  740SOL     OW 2220   2.876   0.234   2.827
  740SOL    HW1 2221   2.871   0.194   2.735
  740SOL    HW2 2222   2.883   0.161   2.895
  741SOL     OW 2223   2.458   1.487   2.346
  741SOL    HW1 2224   2.501   1.432   2.275
  741SOL    HW2 2225   2.400   1.557   2.304
  742SOL     OW 2226   2.116   1.351   2.148
  742SOL    HW1 2227   2.020   1.346   2.123
  742SOL    HW2 2228   2.125   1.389   2.240
  743SOL     OW 2229   1.939   0.343   1.898
  743SOL    HW1 2230   1.849   0.312   1.870
  743SOL    HW2 2231   1.968   0.419   1.839
  744SOL     OW 2232   1.911   0.196   2.167
  744SOL    HW1 2233   1.918   0.268   2.098
  744SOL    HW2 2234   1.991   0.136   2.162
  745SOL     OW 2235   2.456   0.743   2.521
  745SOL    HW1 2236   2.500   0.832   2.508
  745SOL    HW2 2237   2.376   0.736   2.462
  746SOL     OW 2238   2.727   1.370   1.891
  746SOL    HW1 2239   2.677   1.395   1.973
  746SOL    HW2 2240   2.752   1.453   1.841
  747SOL     OW 2241   2.523   1.798   2.823
  747SOL    HW1 2242   2.492   1.886   2.785
  747SOL    HW2 2243   2.621   1.787   2.805
  748SOL     OW 2244   2.716   0.958   2.721
  748SOL    HW1 2245   2.773   0.886   2.762
  748SOL    HW2 2246   2.689   1.024   2.791
  749SOL     OW 2247   2.931   0.960   1.936
  749SOL    HW1 2248   2.909   1.037   1.876
  749SOL    HW2 2249   0.030   0.947   1.939
  750SOL     OW 2250   1.945   1.239   2.522
  750SOL    HW1 2251   1.940   1.186   2.607
  750SOL    HW2 2252   2.018   1.202   2.465
  751SOL     OW 2253   2.323   0.428   2.400
  751SOL    HW1 2254   2.320   0.365   2.323
  751SOL    HW2 2255   2.258   0.398   2.470
  752SOL     OW 2256   2.679   1.585   2.544
  752SOL    HW1 2257   2.696   1.609   2.448
  752SOL    HW2 2258   2.599   1.526   2.550
  753SOL     OW 2259   2.634   1.331   2.168
  753SOL    HW1 2260   2.594   1.240   2.177
  753SOL    HW2 2261   2.721   1.335   2.218
  754SOL     OW 2262   1.905   1.075   2.165
  754SOL    HW1 2263   2.003   1.069   2.148
  754SOL    HW2 2264   1.870   0.984   2.191
  755SOL     OW 2265   2.733   1.645   2.210
  755SOL    HW1 2266   2.664   1.625   2.141
  755SOL    HW2 2267   2.709   1.729   2.258
  756SOL     OW 2268   2.089   2.498   0.111
  756SOL    HW1 2269   1.996   2.481   0.145
  756SOL    HW2 2270   2.102   2.450   0.024
  757SOL     OW 2271   2.085   2.139   0.992
  757SOL    HW1 2272   2.119   2.113   1.081
  757SOL    HW2 2273   1.992   2.103   0.980
  758SOL     OW 2274   1.871   2.243   0.636
  758SOL    HW1 2275   1.787   2.269   0.684
  758SOL    HW2 2276   1.856   2.159   0.586
  759SOL     OW 2277   2.614   0.003   1.021
  759SOL    HW1 2278   2.536   0.032   1.076
  759SOL    HW2 2279   2.656   0.083   0.978
  760SOL     OW 2280   2.713   2.649   1.816
  760SOL    HW1 2281   2.713   2.713   1.892
  760SOL    HW2 2282   2.744   2.696   1.733
  761SOL     OW 2283   2.524   2.848   0.693
  761SOL    HW1 2284   2.616   2.854   0.731
  761SOL    HW2 2285   2.483   2.939   0.688
  762SOL     OW 2286   2.305   2.259   1.496
  762SOL    HW1 2287   2.386   2.201   1.497
  762SOL    HW2 2288   2.223   2.202   1.504
  763SOL     OW 2289   2.098   0.299   0.491
  763SOL    HW1 2290   2.072   0.393   0.512
  763SOL    HW2 2291   2.036   0.236   0.537
  764SOL     OW 2292   2.107   2.950   0.883
  764SOL    HW1 2293   2.120   2.860   0.926
  764SOL    HW2 2294   2.058   0.010   0.945
  765SOL     OW 2295   2.475   2.828   0.142
  765SOL    HW1 2296   2.467   2.918   0.099
  765SOL    HW2 2297   2.526   2.837   0.228
  766SOL     OW 2298   1.977   2.510   0.562
  766SOL    HW1 2299   1.945   2.416   0.578
  766SOL    HW2 2300   1.970   2.563   0.646
  767SOL     OW 2301   1.980   2.603   1.586
  767SOL    HW1 2302   2.074   2.606   1.621
  767SOL    HW2 2303   1.940   2.694   1.593
  768SOL     OW 2304   2.514   0.238   0.683
  768SOL    HW1 2305   2.456   0.171   0.729
  768SOL    HW2 2306   2.459   0.293   0.621
  769SOL     OW 2307   2.671   1.864   0.501
  769SOL    HW1 2308   2.715   1.953   0.492
  769SOL    HW2 2309   2.573   1.876   0.514
  770SOL     OW 2310   2.058   2.840   1.256
  770SOL    HW1 2311   2.145   2.789   1.250
  770SOL    HW2 2312   1.982   2.777   1.240
  771SOL     OW 2313   2.187   2.114   1.804
  771SOL    HW1 2314   2.247   2.194   1.814
  771SOL    HW2 2315   2.096   2.135   1.838
  772SOL     OW 2316   2.456   2.585   0.267
  772SOL    HW1 2317   2.473   2.664   0.208
  772SOL    HW2 2318   2.387   2.608   0.335
  773SOL     OW 2319   2.652   2.483   1.456
  773SOL    HW1 2320   2.628   2.461   1.550
  773SOL    HW2 2321   2.613   2.414   1.395
  774SOL     OW 2322   2.832   2.750   1.576
  774SOL    HW1 2323   2.870   2.662   1.550
  774SOL    HW2 2324   2.775   2.786   1.502
  775SOL     OW 2325   2.846   2.246   1.256
  775SOL    HW1 2326   2.771   2.302   1.293
  775SOL    HW2 2327   2.828   2.227   1.159
  776SOL     OW 2328   2.892   2.573   0.415
  776SOL    HW1 2329   2.930   2.565   0.508
  776SOL    HW2 2330   2.813   2.513   0.406
  777SOL     OW 2331   1.947   2.681   0.776
  777SOL    HW1 2332   2.037   2.666   0.817
  777SOL    HW2 2333   1.908   2.766   0.812
  778SOL     OW 2334   2.787   2.197   0.216
  778SOL    HW1 2335   2.783   2.269   0.147
  778SOL    HW2 2336   2.753   2.111   0.176
  779SOL     OW 2337   2.407   2.051   0.891
  779SOL    HW1 2338   2.411   2.068   0.990
  779SOL    HW2 2339   2.414   2.138   0.842
  780SOL     OW 2340   2.062   2.148   1.499
  780SOL    HW1 2341   1.979   2.202   1.486
  780SOL    HW2 2342   2.050   2.087   1.578
  781SOL     OW 2343   2.246   2.557   0.479
  781SOL    HW1 2344   2.282   2.463   0.480
  781SOL    HW2 2345   2.149   2.555   0.504
  782SOL     OW 2346   2.485   1.987   0.115
  782SOL    HW1 2347   2.581   1.960   0.122
  782SOL    HW2 2348   2.446   1.946   0.032
  783SOL     OW 2349   2.637   2.136   1.753
  783SOL    HW1 2350   2.705   2.066   1.773
  783SOL    HW2 2351   2.568   2.138   1.825
  784SOL     OW 2352   2.784   2.367   0.902
  784SOL    HW1 2353   2.756   2.357   0.807
  784SOL    HW2 2354   2.828   2.283   0.933
  785SOL     OW 2355   2.407   1.924   0.508
  785SOL    HW1 2356   2.324   1.924   0.564
  785SOL    HW2 2357   2.408   2.005   0.449
  786SOL     OW 2358   2.802   2.101   0.470
  786SOL    HW1 2359   2.758   2.147   0.394
  786SOL    HW2 2360   2.896   2.078   0.445
  787SOL     OW 2361   2.885   2.391   0.025
  787SOL    HW1 2362   2.846   2.477   2.993
  787SOL    HW2 2363   2.950   2.410   0.099
  788SOL     OW 2364   1.937   2.420   1.388
  788SOL    HW1 2365   2.031   2.413   1.354
  788SOL    HW2 2366   1.933   2.491   1.458
  789SOL     OW 2367   2.425   2.086   1.160
  789SOL    HW1 2368   2.466   2.001   1.193
  789SOL    HW2 2369   2.330   2.091   1.191
  790SOL     OW 2370   2.740   2.320   0.637
  790SOL    HW1 2371   2.685   2.386   0.584
  790SOL    HW2 2372   2.747   2.234   0.586
  791SOL     OW 2373   2.863   1.919   0.755
  791SOL    HW1 2374   2.808   1.904   0.673
  791SOL    HW2 2375   2.856   1.839   0.815
  792SOL     OW 2376   2.387   2.123   0.326
  792SOL    HW1 2377   2.420   2.065   0.252
  792SOL    HW2 2378   2.374   2.216   0.292
  793SOL     OW 2379   2.765   1.951   1.397
  793SOL    HW1 2380   2.785   1.931   1.301
  793SOL    HW2 2381   2.841   2.000   1.439
  794SOL     OW 2382   2.276   2.676   1.254
  794SOL    HW1 2383   2.353   2.687   1.316
  794SOL    HW2 2384   2.235   2.586   1.267
  795SOL     OW 2385   2.422   2.403   0.863
  795SOL    HW1 2386   2.438   2.462   0.784
  795SOL    HW2 2387   2.482   2.431   0.938
  796SOL     OW 2388   2.274   2.608   1.601
  796SOL    HW1 2389   2.336   2.657   1.540
  796SOL    HW2 2390   2.312   2.517   1.621
  797SOL     OW 2391   2.861   1.982   1.769
  797SOL    HW1 2392   2.891   2.052   1.704
  797SOL    HW2 2393   2.903   1.894   1.745
  798SOL     OW 2394   2.361   1.911   1.743
  798SOL    HW1 2395   2.324   1.850   1.673
  798SOL    HW2 2396   2.294   1.983   1.763
  799SOL     OW 2397   2.447   2.729   1.036
  799SOL    HW1 2398   2.471   2.824   1.014
  799SOL    HW2 2399   2.378   2.728   1.109
  800SOL     OW 2400   0.064   2.397   0.277
  800SOL    HW1 2401   0.085   2.311   0.324
  800SOL    HW2 2402   0.030   2.464   0.343
  801SOL     OW 2403   2.165   2.067   1.242
  801SOL    HW1 2404   2.133   2.105   1.328
  801SOL    HW2 2405   2.144   1.970   1.237
  802SOL     OW 2406   2.591   2.494   1.062
  802SOL    HW1 2407   2.665   2.471   0.999
  802SOL    HW2 2408   2.558   2.587   1.043
  803SOL     OW 2409   2.162   1.929   0.624
  803SOL    HW1 2410   2.149   2.024   0.650
  803SOL    HW2 2411   2.167   1.872   0.706
  804SOL     OW 2412   2.860   2.629   0.979
  804SOL    HW1 2413   2.904   2.634   1.069
  804SOL    HW2 2414   2.865   2.534   0.946
  805SOL     OW 2415   2.218   2.783   1.798
  805SOL    HW1 2416   2.291   2.790   1.866
  805SOL    HW2 2417   2.240   2.712   1.732
  806SOL     OW 2418   2.177   2.675   0.952
  806SOL    HW1 2419   2.273   2.698   0.941
  806SOL    HW2 2420   2.169   2.582   0.989
  807SOL     OW 2421   2.197   2.379   1.008
  807SOL    HW1 2422   2.155   2.289   0.993
  807SOL    HW2 2423   2.277   2.388   0.948
  808SOL     OW 2424   2.975   2.243   1.664
  808SOL    HW1 2425   2.922   2.303   1.723
  808SOL    HW2 2426   0.071   2.272   1.664
  809SOL     OW 2427   2.985   2.059   1.475
  809SOL    HW1 2428   2.976   2.132   1.543
  809SOL    HW2 2429   0.008   2.099   1.386
  810SOL     OW 2430   2.857   2.670   1.255
  810SOL    HW1 2431   2.911   2.610   1.314
  810SOL    HW2 2432   2.772   2.624   1.229
  811SOL     OW 2433   1.899   2.407   1.116
  811SOL    HW1 2434   1.982   2.380   1.067
  811SOL    HW2 2435   1.919   2.416   1.214
  812SOL     OW 2436   2.053   2.381   1.723
  812SOL    HW1 2437   2.112   2.340   1.653
  812SOL    HW2 2438   1.995   2.450   1.681
  813SOL     OW 2439   2.674   2.429   0.349
  813SOL    HW1 2440   2.682   2.353   0.286
  813SOL    HW2 2441   2.594   2.484   0.325
  814SOL     OW 2442   2.547   2.322   1.266
  814SOL    HW1 2443   2.502   2.238   1.236
  814SOL    HW2 2444   2.556   2.385   1.188
  815SOL     OW 2445   2.303   2.359   0.212
  815SOL    HW1 2446   2.381   2.422   0.214
  815SOL    HW2 2447   2.220   2.409   0.190
  816SOL     OW 2448   2.014   2.995   1.471
  816SOL    HW1 2449   2.029   2.940   1.553
  816SOL    HW2 2450   2.034   2.940   1.390
  817SOL     OW 2451   2.762   1.940   0.129
  817SOL    HW1 2452   2.817   1.925   0.046
  817SOL    HW2 2453   2.809   1.901   0.208
  818SOL     OW 2454   2.128   2.181   0.720
  818SOL    HW1 2455   2.043   2.222   0.687
  818SOL    HW2 2456   2.123   2.168   0.819
  819SOL     OW 2457   2.673   2.866   1.371
  819SOL    HW1 2458   2.728   2.842   1.291
  819SOL    HW2 2459   2.699   2.957   1.404
  820SOL     OW 2460   2.757   2.777   0.295
  820SOL    HW1 2461   2.831   2.822   0.244
  820SOL    HW2 2462   2.796   2.709   0.356
  821SOL     OW 2463   2.878   2.100   0.967
  821SOL    HW1 2464   2.874   2.053   0.879
  821SOL    HW2 2465   2.870   2.032   1.040
  822SOL     OW 2466   1.972   2.864   1.715
  822SOL    HW1 2467   1.892   2.854   1.774
  822SOL    HW2 2468   2.055   2.843   1.767
  823SOL     OW 2469   2.532   2.061   1.496
  823SOL    HW1 2470   2.618   2.043   1.447
  823SOL    HW2 2471   2.553   2.081   1.592
  824SOL     OW 2472   1.939   2.023   0.336
  824SOL    HW1 2473   1.904   2.085   0.265
  824SOL    HW2 2474   2.030   1.989   0.309
  825SOL     OW 2475   2.476   2.696   1.431
  825SOL    HW1 2476   2.535   2.776   1.415
  825SOL    HW2 2477   2.533   2.615   1.440
  826SOL     OW 2478   2.579   2.426   1.708
  826SOL    HW1 2479   2.606   2.496   1.774
  826SOL    HW2 2480   2.627   2.341   1.728
  827SOL     OW 2481   2.455   2.594   0.655
  827SOL    HW1 2482   2.494   2.686   0.658
  827SOL    HW2 2483   2.374   2.593   0.596
  828SOL     OW 2484   2.742   2.832   0.861
  828SOL    HW1 2485   2.777   2.747   0.900
  828SOL    HW2 2486   2.684   2.878   0.928
  829SOL     OW 2487   2.293   2.291   0.525
  829SOL    HW1 2488   2.322   2.220   0.462
  829SOL    HW2 2489   2.245   2.249   0.603
  830SOL     OW 2490   2.186   2.410   1.287
  830SOL    HW1 2491   2.239   2.355   1.351
  830SOL    HW2 2492   2.211   2.386   1.193
  831SOL     OW 2493   2.864   1.885   1.152
  831SOL    HW1 2494   2.804   1.816   1.111
  831SOL    HW2 2495   2.960   1.860   1.137
  832SOL     OW 2496   1.880   2.920   0.307
  832SOL    HW1 2497   1.972   2.929   0.268
  832SOL    HW2 2498   1.867   2.826   0.339
  833SOL     OW 2499   2.093   2.473   1.982
  833SOL    HW1 2500   2.001   2.493   2.016
  833SOL    HW2 2501   2.088   2.453   1.884
  834SOL     OW 2502   2.088   2.138   2.849
  834SOL    HW1 2503   2.121   2.115   2.940
  834SOL    HW2 2504   1.994   2.104   2.838
  835SOL     OW 2505   1.871   2.243   2.497
  835SOL    HW1 2506   1.787   2.271   2.545
  835SOL    HW2 2507   1.855   2.157   2.448
  836SOL     OW 2508   2.638   0.011   2.882
  836SOL    HW1 2509   2.558   0.025   2.940
  836SOL    HW2 2510   2.655   0.094   2.829
  837SOL     OW 2511   2.525   2.847   2.550
  837SOL    HW1 2512   2.614   2.852   2.596
  837SOL    HW2 2513   2.482   2.937   2.552
  838SOL     OW 2514   2.091   0.295   2.348
  838SOL    HW1 2515   2.071   0.390   2.372
  838SOL    HW2 2516   2.034   0.234   2.403
  839SOL     OW 2517   2.110   2.951   2.748
  839SOL    HW1 2518   2.119   2.860   2.788
  839SOL    HW2 2519   2.056   0.010   2.809
  840SOL     OW 2520   2.472   2.825   1.989
  840SOL    HW1 2521   2.467   2.910   1.936
  840SOL    HW2 2522   2.522   2.842   2.074
  841SOL     OW 2523   1.978   2.510   2.424
  841SOL    HW1 2524   1.945   2.417   2.440
  841SOL    HW2 2525   1.970   2.563   2.509
  842SOL     OW 2526   2.510   0.242   2.553
  842SOL    HW1 2527   2.454   0.165   2.585
  842SOL    HW2 2528   2.459   0.292   2.483
  843SOL     OW 2529   2.670   1.864   2.361
  843SOL    HW1 2530   2.716   1.953   2.355
  843SOL    HW2 2531   2.572   1.877   2.377
  844SOL     OW 2532   2.060   2.813   0.107
  844SOL    HW1 2533   2.141   2.754   0.107
  844SOL    HW2 2534   1.978   2.757   0.098
  845SOL     OW 2535   2.458   2.585   2.127
  845SOL    HW1 2536   2.475   2.662   2.065
  845SOL    HW2 2537   2.388   2.610   2.193
  846SOL     OW 2538   2.897   2.573   2.280
  846SOL    HW1 2539   2.929   2.565   2.374
  846SOL    HW2 2540   2.815   2.517   2.267
  847SOL     OW 2541   1.947   2.682   2.638
  847SOL    HW1 2542   2.037   2.666   2.681
  847SOL    HW2 2543   1.907   2.765   2.676
  848SOL     OW 2544   2.742   2.206   2.060
  848SOL    HW1 2545   2.787   2.272   2.001
  848SOL    HW2 2546   2.753   2.114   2.021
  849SOL     OW 2547   2.413   2.051   2.759
  849SOL    HW1 2548   2.391   2.071   2.854
  849SOL    HW2 2549   2.417   2.137   2.707
  850SOL     OW 2550   2.246   2.556   2.341
  850SOL    HW1 2551   2.282   2.463   2.345
  850SOL    HW2 2552   2.149   2.556   2.365
  851SOL     OW 2553   2.485   1.989   1.970
  851SOL    HW1 2554   2.571   1.940   1.986
  851SOL    HW2 2555   2.441   1.954   1.887
  852SOL     OW 2556   2.785   2.373   2.757
  852SOL    HW1 2557   2.757   2.354   2.663
  852SOL    HW2 2558   2.820   2.289   2.798
  853SOL     OW 2559   2.407   1.925   2.370
  853SOL    HW1 2560   2.323   1.924   2.426
  853SOL    HW2 2561   2.407   2.006   2.312
  854SOL     OW 2562   2.157   1.905   2.043
  854SOL    HW1 2563   2.210   1.981   2.007
  854SOL    HW2 2564   2.219   1.838   2.084
  855SOL     OW 2565   2.801   2.102   2.330
  855SOL    HW1 2566   2.754   2.148   2.254
  855SOL    HW2 2567   2.894   2.079   2.302
  856SOL     OW 2568   2.892   2.415   1.872
  856SOL    HW1 2569   2.841   2.499   1.850
  856SOL    HW2 2570   2.944   2.430   1.956
  857SOL     OW 2571   2.740   2.320   2.498
  857SOL    HW1 2572   2.684   2.385   2.446
  857SOL    HW2 2573   2.745   2.234   2.447
  858SOL     OW 2574   2.860   1.921   2.615
  858SOL    HW1 2575   2.806   1.901   2.534
  858SOL    HW2 2576   2.859   1.841   2.676
  859SOL     OW 2577   2.392   2.125   2.186
  859SOL    HW1 2578   2.423   2.066   2.111
  859SOL    HW2 2579   2.376   2.217   2.151
  860SOL     OW 2580   2.423   2.400   2.725
  860SOL    HW1 2581   2.436   2.460   2.647
  860SOL    HW2 2582   2.478   2.432   2.802
  861SOL     OW 2583   2.433   2.729   2.881
  861SOL    HW1 2584   2.486   2.812   2.862
  861SOL    HW2 2585   2.399   2.732   2.975
  862SOL     OW 2586   0.057   2.390   2.138
  862SOL    HW1 2587   0.092   2.311   2.188
  862SOL    HW2 2588   0.027   2.460   2.204
  863SOL     OW 2589   2.163   2.069   0.091
  863SOL    HW1 2590   2.168   2.111   0.182
  863SOL    HW2 2591   2.149   1.970   0.101
  864SOL     OW 2592   2.591   2.500   2.917
  864SOL    HW1 2593   2.662   2.473   2.851
  864SOL    HW2 2594   2.559   2.592   2.895
  865SOL     OW 2595   2.163   1.929   2.486
  865SOL    HW1 2596   2.147   2.024   2.512
  865SOL    HW2 2597   2.165   1.872   2.568
  866SOL     OW 2598   2.866   2.631   2.828
  866SOL    HW1 2599   2.897   2.642   2.923
  866SOL    HW2 2600   2.866   2.534   2.804
  867SOL     OW 2601   2.174   2.673   2.813
  867SOL    HW1 2602   2.271   2.699   2.807
  867SOL    HW2 2603   2.167   2.579   2.848
  868SOL     OW 2604   2.190   2.387   2.864
  868SOL    HW1 2605   2.149   2.296   2.858
  868SOL    HW2 2606   2.273   2.389   2.809
  869SOL     OW 2607   2.875   2.648   0.093
  869SOL    HW1 2608   2.914   2.630   0.183
  869SOL    HW2 2609   2.775   2.650   0.099
  870SOL     OW 2610   2.675   2.429   2.208
  870SOL    HW1 2611   2.678   2.348   2.150
  870SOL    HW2 2612   2.595   2.484   2.183
  871SOL     OW 2613   2.563   2.314   0.106
  871SOL    HW1 2614   2.486   2.252   0.091
  871SOL    HW2 2615   2.563   2.385   0.036
  872SOL     OW 2616   2.333   2.358   2.054
  872SOL    HW1 2617   2.393   2.436   2.070
  872SOL    HW2 2618   2.239   2.389   2.045
  873SOL     OW 2619   0.171   2.704   2.173
  873SOL    HW1 2620   0.090   2.662   2.215
  873SOL    HW2 2621   0.180   2.671   2.079
  874SOL     OW 2622   2.128   2.182   2.582
  874SOL    HW1 2623   2.043   2.222   2.548
  874SOL    HW2 2624   2.123   2.170   2.681
  875SOL     OW 2625   2.767   2.762   2.128
  875SOL    HW1 2626   2.840   2.811   2.081
  875SOL    HW2 2627   2.807   2.699   2.195
  876SOL     OW 2628   2.878   2.098   2.825
  876SOL    HW1 2629   2.873   2.058   2.734
  876SOL    HW2 2630   2.886   2.024   2.893
  877SOL     OW 2631   1.939   2.202   1.896
  877SOL    HW1 2632   1.847   2.176   1.865
  877SOL    HW2 2633   1.970   2.281   1.843
  878SOL     OW 2634   1.933   2.023   2.177
  878SOL    HW1 2635   1.915   2.107   2.126
  878SOL    HW2 2636   2.023   1.987   2.151
  879SOL     OW 2637   2.456   2.594   2.516
  879SOL    HW1 2638   2.494   2.686   2.519
  879SOL    HW2 2639   2.374   2.593   2.459
  880SOL     OW 2640   2.735   2.828   2.720
  880SOL    HW1 2641   2.780   2.748   2.758
  880SOL    HW2 2642   2.696   2.884   2.793
  881SOL     OW 2643   2.939   2.824   1.902
  881SOL    HW1 2644   2.916   2.921   1.898
  881SOL    HW2 2645   0.021   2.812   1.958
  882SOL     OW 2646   2.294   2.291   2.385
  882SOL    HW1 2647   2.321   2.217   2.323
  882SOL    HW2 2648   2.245   2.252   2.463
  883SOL     OW 2649   1.889   2.917   2.164
  883SOL    HW1 2650   1.984   2.931   2.136
  883SOL    HW2 2651   1.876   2.823   2.195
   3.00000   3.00000   3.00000
