;----------------------------TITLE -----------------------------------------------------------------------------------------
;   Sucrose
;
[ moleculetype ]
; Name   nrexcl
O7LP     3
[ atoms ]
;  nr  type  resnr  resid  atom  cgnr  charge    mass
    1  HS14    1    O7LP    H45    1    0.345   1.0080
    2  OAlc    1    O7LP    O11    2   -0.614  15.9994
    3  COpt    1    O7LP    C23    3    0.159  12.0110
    4  HOpt    1    O7LP    H14    4    0.093   1.0080
    5  HOpt    1    O7LP    H13    5    0.033   1.0080
    6  COpt    1    O7LP    C20    6   -0.146  12.0110
    7  HOpt    1    O7LP    H12    7    0.159   1.0080
    8  COpt    1    O7LP    C19    8    0.252  12.0110
    9  HOpt    1    O7LP    H11    9    0.121   1.0080
   10  OAlc    1    O7LP     O8   10   -0.710  15.9994
   11  HS14    1    O7LP    H42   11    0.458   1.0080
   12  COpt    1    O7LP    C18   12   -0.027  12.0110
   13  HOpt    1    O7LP    H10   13    0.148   1.0080
   14  OAlc    1    O7LP     O7   14   -0.677  15.9994
   15     H    1    O7LP    H41   15    0.486   1.0080
   16  COpt    1    O7LP    C17   16    0.281  12.0110
   17  HOpt    1    O7LP    H09   17    0.086   1.0080
   18  OAlc    1    O7LP     O6   18   -0.695  15.9994
   19  HS14    1    O7LP    H40   19    0.503   1.0080
   20  COpt    1    O7LP    C16   20   -0.318  12.0110
   21  HOpt    1    O7LP    H08   21    0.286   1.0080
   22    OE    1    O7LP     O3   22   -0.092  15.9994
   23    OE    1    O7LP     O2   23   -0.309  15.9994
   24  COpt    1    O7LP    C12   24    0.208  12.0110
   25  COpt    1    O7LP    C21   25    0.215  12.0110
   26  HOpt    1    O7LP    H06   26    0.084   1.0080
   27  HOpt    1    O7LP    H07   27    0.020   1.0080
   28  OAlc    1    O7LP     O9   28   -0.674  15.9994
   29     H    1    O7LP    H43   29    0.435   1.0080
   30    OE    1    O7LP     O1   30   -0.345  15.9994
   31  COpt    1    O7LP    C15   31    0.048  12.0110
   32  HOpt    1    O7LP    H01   32    0.089   1.0080
   33  COpt    1    O7LP    C22   33    0.145  12.0110
   34  HOpt    1    O7LP    H04   34    0.091   1.0080
   35  HOpt    1    O7LP    H05   35    0.033   1.0080
   36  OAlc    1    O7LP    O10   36   -0.657  15.9994
   37     H    1    O7LP    H44   37    0.340   1.0080
   38  COpt    1    O7LP    C14   38    0.283  12.0110
   39  HOpt    1    O7LP    H02   39    0.076   1.0080
   40  OAlc    1    O7LP     O5   40   -0.723  15.9994
   41     H    1    O7LP    H39   41    0.466   1.0080
   42  COpt    1    O7LP    C13   42    0.249  12.0110
   43  HOpt    1    O7LP    H03   43    0.036   1.0080
   44  OAlc    1    O7LP     O4   44   -0.719  15.9994
   45     H    1    O7LP    H38   45    0.478   1.0080
; total charge of the molecule:   0.000
[ bonds ]
;  ai   aj  funct   c0         c1
    1    2    2   0.0972   1.9581e+07
    2    3    2   0.1430   8.1800e+06
    3    4    2   0.1090   1.2300e+07
    3    5    2   0.1090   1.2300e+07
    3    6    2   0.1530   7.1500e+06
    6    7    2   0.1090   1.2300e+07
    6    8    2   0.1530   7.1500e+06
    6   22    2   0.1430   8.1800e+06
    8    9    2   0.1090   1.2300e+07
    8   10    2   0.1430   8.1800e+06
    8   12    2   0.1530   7.1500e+06
   10   11    2   0.0975   3.3662e+07
   12   13    2   0.1090   1.2300e+07
   12   14    2   0.1420   3.2236e+06
   12   16    2   0.1530   7.1500e+06
   14   15    2   0.0971   7.9547e+06
   16   17    2   0.1090   1.2300e+07
   16   18    2   0.1430   8.1800e+06
   16   20    2   0.1520   5.4300e+06
   18   19    2   0.0971   7.9547e+06
   20   21    2   0.1090   1.2300e+07
   20   22    2   0.1420   3.2236e+06
   20   23    2   0.1400   8.5400e+06
   23   24    2   0.1430   8.1800e+06
   24   25    2   0.1530   7.1500e+06
   24   30    2   0.1420   3.2236e+06
   24   42    2   0.1530   7.1500e+06
   25   26    2   0.1090   1.2300e+07
   25   27    2   0.1090   1.2300e+07
   25   28    2   0.1410   6.5389e+06
   28   29    2   0.0971   7.9547e+06
   30   31    2   0.1460   4.6913e+06
   31   32    2   0.1090   1.2300e+07
   31   33    2   0.1520   5.4300e+06
   31   38    2   0.1520   5.4300e+06
   33   34    2   0.1090   1.2300e+07
   33   35    2   0.1090   1.2300e+07
   33   36    2   0.1410   6.5389e+06
   36   37    2   0.0975   3.3662e+07
   38   39    2   0.1090   1.2300e+07
   38   40    2   0.1410   6.5389e+06
   38   42    2   0.1520   5.4300e+06
   40   41    2   0.0971   7.9547e+06
   42   43    2   0.1090   1.2300e+07
   42   44    2   0.1410   6.5389e+06
   44   45    2   0.0971   7.9547e+06
[ pairs ]
;  ai   aj  funct  ;  all 1-4 pairs but the ones excluded in GROMOS itp
    1    4    1
    1    5    1
    1    6    1
    2    7    1
    2    8    1
    2   22    1
    3    9    1
    3   10    1
    3   12    1
    3   20    1
    4    7    1
    4    8    1
    4   22    1
    5    7    1
    5    8    1
    5   22    1
    6   11    1
    6   13    1
    6   14    1
    6   16    1
    6   21    1
    6   23    1
    7    9    1
    7   10    1
    7   12    1
    7   20    1
    8   15    1
    8   17    1
    8   18    1
    8   20    1
    9   11    1
    9   13    1
    9   14    1
    9   16    1
    9   22    1
   10   13    1
   10   14    1
   10   16    1
   10   22    1
   11   12    1
   12   19    1
   12   21    1
   12   22    1
   12   23    1
   13   15    1
   13   17    1
   13   18    1
   13   20    1
   14   17    1
   14   18    1
   14   20    1
   15   16    1
   16   24    1
   17   19    1
   17   21    1
   17   22    1
   17   23    1
   18   21    1
   18   22    1
   18   23    1
   19   20    1
   20   25    1
   20   30    1
   20   42    1
   21   24    1
   22   24    1
   23   26    1
   23   27    1
   23   28    1
   23   31    1
   23   38    1
   23   43    1
   23   44    1
   24   29    1
   24   32    1
   24   33    1
   24   39    1
   24   40    1
   24   45    1
   25   31    1
   25   38    1
   25   43    1
   25   44    1
   26   29    1
   26   30    1
   26   42    1
   27   29    1
   27   30    1
   27   42    1
   28   30    1
   28   42    1
   30   34    1
   30   35    1
   30   36    1
   30   39    1
   30   40    1
   30   43    1
   30   44    1
   31   37    1
   31   41    1
   31   43    1
   31   44    1
   32   34    1
   32   35    1
   32   36    1
   32   39    1
   32   40    1
   32   42    1
   33   39    1
   33   40    1
   33   42    1
   34   37    1
   34   38    1
   35   37    1
   35   38    1
   36   38    1
   38   45    1
   39   41    1
   39   43    1
   39   44    1
   40   43    1
   40   44    1
   41   42    1
   43   45    1
[ angles ]
;  ai   aj   ak  funct   angle     fc
    1    2    3    2    109.50   450.00
    2    3    4    2    106.75   503.00
    2    3    5    2    111.00   530.00
    2    3    6    2    111.00   530.00
    4    3    5    2    107.57   484.00
    4    3    6    2    108.53   443.00
    5    3    6    2    111.40   532.00
    3    6    7    2    108.53   443.00
    3    6    8    2    116.00   465.00
    3    6   22    2    111.00   530.00
    7    6    8    2    108.00   465.00
    7    6   22    2    104.00   490.00
    8    6   22    2    109.50   520.00
    6    8    9    2    109.50   285.00
    6    8   10    2    109.50   520.00
    6    8   12    2    111.00   530.00
    9    8   10    2    106.75   503.00
    9    8   12    2    108.53   443.00
   10    8   12    2    109.50   520.00
    8   10   11    2    106.75   503.00
    8   12   13    2    108.00   465.00
    8   12   14    2    109.50   520.00
    8   12   16    2    111.00   530.00
   13   12   14    2    111.30   632.00
   13   12   16    2    108.53   443.00
   14   12   16    2    109.50   520.00
   12   14   15    2    109.50   450.00
   12   16   17    2    110.00   285.00
   12   16   18    2    109.50   520.00
   12   16   20    2    109.50   520.00
   17   16   18    2    111.00   530.00
   17   16   20    2    108.53   443.00
   18   16   20    2    111.00   530.00
   16   18   19    2    109.50   450.00
   16   20   21    2    108.53   443.00
   16   20   22    2    109.50   520.00
   16   20   23    2    109.50   520.00
   21   20   22    2    110.00   285.00
   21   20   23    2    111.40   532.00
   22   20   23    2    107.57   484.00
    6   22   20    2    114.00  1559.41
   20   23   24    2    116.00   465.00
   23   24   25    2    111.00   530.00
   23   24   30    2    112.00  4899.70
   23   24   42    2    109.50   520.00
   25   24   30    2    109.50   520.00
   25   24   42    2    111.00   530.00
   30   24   42    2    104.00   490.00
   24   25   26    2    108.53   443.00
   24   25   27    2    111.00   530.00
   24   25   28    2    111.00   530.00
   26   25   27    2    107.60   507.00
   26   25   28    2    107.57   484.00
   27   25   28    2    111.00   530.00
   25   28   29    2    109.50   450.00
   24   30   31    2    109.50   450.00
   30   31   32    2    107.57   484.00
   30   31   33    2    111.00   530.00
   30   31   38    2    104.00   490.00
   32   31   33    2    108.53   443.00
   32   31   38    2    109.50   285.00
   33   31   38    2    116.00   465.00
   31   33   34    2    108.00   465.00
   31   33   35    2    108.53   443.00
   31   33   36    2    115.00   610.00
   34   33   35    2    107.57   484.00
   34   33   36    2    106.75   503.00
   35   33   36    2    111.30   632.00
   33   36   37    2    109.50   450.00
   31   38   39    2    110.00   285.00
   31   38   40    2    109.50   520.00
   31   38   42    2    101.00  2076.33
   39   38   40    2    111.00   530.00
   39   38   42    2    109.50   285.00
   40   38   42    2    115.00   610.00
   38   40   41    2    109.50   450.00
   24   42   38    2    101.00  2076.33
   24   42   43    2    107.57   484.00
   24   42   44    2    115.00   610.00
   38   42   43    2    108.00   465.00
   38   42   44    2    111.00   530.00
   43   42   44    2    111.40   532.00
   42   44   45    2    109.50   450.00
[ dihedrals ]
; GROMOS improper dihedrals
;  ai   aj   ak   al  funct   angle     fc
[ dihedrals ]
;  ai   aj   ak   al  funct    ph0      cp     mult
   11   10    8    9    1     90.00     5.90    1
   15   14   12   13    1     90.00     5.90    1
   19   18   16   17    1     90.00     5.90    1
    8    6    3    2    1      0.00     5.44    3
    8    6    3    2    1    -90.00     4.10    1
    1    2    3    5    1      0.00     2.10    3
    1    2    3    5    1    -90.00     1.70    1
    1    2    3    5    1     90.00     1.20    2
    1    2    3    5    1      0.00     1.20    1
   29   28   25   26    1      0.00     2.10    3
   29   28   25   26    1    -90.00     1.70    1
   29   28   25   26    1     90.00     1.20    2
   29   28   25   26    1      0.00     1.20    1
   37   36   33   34    1      0.00     2.10    3
   37   36   33   34    1    -90.00     1.70    1
   37   36   33   34    1     90.00     1.20    2
   37   36   33   34    1      0.00     1.20    1
    6    8   12   16    1      0.00     5.92    3
    8    6   22   20    1      0.00     1.26    3
    8   12   16   20    1      0.00     5.92    3
   12   16   20   23    1      0.00     5.92    3
   16   20   23   24    1      0.00     1.26    3
   20   23   24   30    1      0.00     1.26    3
   22    6    8   12    1      0.00     5.92    3
   23   20   22    6    1      0.00     1.26    3
   23   24   25   28    1      0.00     5.92    3
   23   24   30   31    1    180.00     1.00    3
   23   24   42   38    1      0.00     5.92    3
   24   30   31   38    1    180.00     1.00    3
   24   42   44   45    1      0.00     1.26    3
   30   31   33   36    1      0.00     5.92    3
   30   31   38   42    1      0.00     5.92    3
   31   38   40   41    1      0.00     1.26    3
   31   38   42   24    1      0.00     5.92    3
[ exclusions ]
;  ai   aj  funct  ;  GROMOS 1-4 exclusions
