water in water
21084
    1SOL     OW    1   2.270   1.995   0.238
    1SOL    HW1    2   2.352   1.942   0.220
    1SOL    HW2    3   2.267   2.074   0.177
    2SOL     OW    4   0.255   0.672   0.150
    2SOL    HW1    5   0.161   0.654   0.182
    2SOL    HW2    6   0.269   0.629   0.061
    3SOL     OW    7   0.190   0.301   1.040
    3SOL    HW1    8   0.240   0.239   1.101
    3SOL    HW2    9   0.135   0.247   0.976
    4SOL     OW   10   0.018   0.365   0.620
    4SOL    HW1   11   5.966   0.400   0.699
    4SOL    HW2   12   5.959   0.308   0.564
    5SOL     OW   13   0.577   1.233   1.238
    5SOL    HW1   14   0.484   1.206   1.216
    5SOL    HW2   15   0.589   1.331   1.218
    6SOL     OW   16   1.556   1.516   0.708
    6SOL    HW1   17   1.518   1.484   0.795
    6SOL    HW2   18   1.481   1.538   0.646
    7SOL     OW   19   1.123   0.676   0.656
    7SOL    HW1   20   1.182   0.757   0.660
    7SOL    HW2   21   1.049   0.686   0.723
    8SOL     OW   22   1.760   0.609   0.186
    8SOL    HW1   23   1.719   0.608   0.095
    8SOL    HW2   24   1.713   0.542   0.244
    9SOL     OW   25   0.765   1.163   1.050
    9SOL    HW1   26   0.687   1.183   1.109
    9SOL    HW2   27   0.789   1.245   0.998
   10SOL     OW   28   0.851   0.810   1.809
   10SOL    HW1   29   0.843   0.898   1.857
   10SOL    HW2   30   0.865   0.827   1.711
   11SOL     OW   31   0.655   0.971   0.719
   11SOL    HW1   32   0.735   0.956   0.777
   11SOL    HW2   33   0.620   1.063   0.734
   12SOL     OW   34   0.702   1.146   1.820
   12SOL    HW1   35   0.761   1.227   1.821
   12SOL    HW2   36   0.610   1.173   1.790
   13SOL     OW   37   0.350   1.422   1.032
   13SOL    HW1   38   0.259   1.401   0.998
   13SOL    HW2   39   0.393   1.490   0.973
   14SOL     OW   40   1.478   1.518   1.349
   14SOL    HW1   41   1.540   1.595   1.361
   14SOL    HW2   42   1.398   1.530   1.408
   15SOL     OW   43   0.414   0.426   1.471
   15SOL    HW1   44   0.489   0.364   1.447
   15SOL    HW2   45   0.334   0.372   1.498
   16SOL     OW   46   1.592   0.450   0.740
   16SOL    HW1   47   1.539   0.488   0.664
   16SOL    HW2   48   1.586   0.511   0.819
   17SOL     OW   49   0.249   1.704   0.488
   17SOL    HW1   50   0.277   1.786   0.539
   17SOL    HW2   51   0.313   1.688   0.413
   18SOL     OW   52   1.100   1.341   1.696
   18SOL    HW1   53   1.160   1.352   1.775
   18SOL    HW2   54   1.044   1.259   1.708
   19SOL     OW   55   0.245   1.440   0.551
   19SOL    HW1   56   0.247   1.540   0.548
   19SOL    HW2   57   0.158   1.409   0.589
   20SOL     OW   58   0.245   1.076   0.898
   20SOL    HW1   59   0.255   0.988   0.946
   20SOL    HW2   60   0.209   1.144   0.962
   21SOL     OW   61   0.629   1.775   1.453
   21SOL    HW1   62   0.544   1.742   1.494
   21SOL    HW2   63   0.642   1.871   1.476
   22SOL     OW   64   0.599   0.936   0.119
   22SOL    HW1   65   0.528   1.002   0.095
   22SOL    HW2   66   0.665   0.979   0.181
   23SOL     OW   67   1.688   0.096   1.498
   23SOL    HW1   68   1.639   0.147   1.427
   23SOL    HW2   69   1.666   0.136   1.588
   24SOL     OW   70   0.110   0.652   0.578
   24SOL    HW1   71   0.062   0.565   0.579
   24SOL    HW2   72   0.062   0.717   0.638
   25SOL     OW   73   1.881   1.740   0.340
   25SOL    HW1   74   1.904   1.715   0.434
   25SOL    HW2   75   1.896   1.838   0.326
   26SOL     OW   76   0.002   1.558   0.087
   26SOL    HW1   77   0.013   1.461   0.110
   26SOL    HW2   78   5.980   1.609   0.170
   27SOL     OW   79   1.658   0.899   0.674
   27SOL    HW1   80   1.739   0.860   0.629
   27SOL    HW2   81   1.624   0.976   0.620
   28SOL     OW   82   1.624   1.110   0.511
   28SOL    HW1   83   1.669   1.110   0.422
   28SOL    HW2   84   1.663   1.182   0.568
   29SOL     OW   85   0.103   0.759   1.692
   29SOL    HW1   86   0.184   0.770   1.750
   29SOL    HW2   87   0.115   0.809   1.607
   30SOL     OW   88   0.577   1.383   0.715
   30SOL    HW1   89   0.529   1.296   0.727
   30SOL    HW2   90   0.560   1.418   0.623
   31SOL     OW   91   1.295   1.230   1.436
   31SOL    HW1   92   1.302   1.167   1.359
   31SOL    HW2   93   1.367   1.210   1.502
   32SOL     OW   94   0.797   0.013   0.577
   32SOL    HW1   95   0.840   0.087   0.526
   32SOL    HW2   96   0.697   0.019   0.568
   33SOL     OW   97   0.218   0.981   1.215
   33SOL    HW1   98   0.299   0.922   1.217
   33SOL    HW2   99   0.144   0.934   1.167
   34SOL     OW  100   1.482   1.063   0.194
   34SOL    HW1  101   1.404   1.013   0.231
   34SOL    HW2  102   1.567   1.025   0.232
   35SOL     OW  103   1.201   1.823   1.626
   35SOL    HW1  104   1.167   1.879   1.551
   35SOL    HW2  105   1.214   1.729   1.595
   36SOL     OW  106   0.314   0.211   1.817
   36SOL    HW1  107   0.387   0.273   1.845
   36SOL    HW2  108   0.232   0.264   1.795
   37SOL     OW  109   1.473   1.412   0.931
   37SOL    HW1  110   1.407   1.425   1.005
   37SOL    HW2  111   1.475   1.315   0.904
   38SOL     OW  112   1.651   1.730   0.561
   38SOL    HW1  113   1.607   1.706   0.474
   38SOL    HW2  114   1.635   1.657   0.627
   39SOL     OW  115   0.614   0.725   0.291
   39SOL    HW1  116   0.614   0.796   0.220
   39SOL    HW2  117   0.534   0.737   0.350
   40SOL     OW  118   1.326   0.363   0.942
   40SOL    HW1  119   1.232   0.331   0.945
   40SOL    HW2  120   1.382   0.307   1.003
   41SOL     OW  121   1.575   1.643   0.321
   41SOL    HW1  122   1.675   1.646   0.328
   41SOL    HW2  123   1.549   1.648   0.224
   42SOL     OW  124   0.790   0.620   1.468
   42SOL    HW1  125   0.757   0.587   1.557
   42SOL    HW2  126   0.756   0.560   1.396
   43SOL     OW  127   1.398   0.525   1.689
   43SOL    HW1  128   1.377   0.554   1.782
   43SOL    HW2  129   1.466   0.452   1.691
   44SOL     OW  130   0.973   0.894   1.551
   44SOL    HW1  131   1.033   0.817   1.528
   44SOL    HW2  132   0.924   0.923   1.468
   45SOL     OW  133   1.010   0.404   1.223
   45SOL    HW1  134   0.941   0.417   1.295
   45SOL    HW2  135   0.977   0.335   1.158
   46SOL     OW  136   1.072   0.690   0.395
   46SOL    HW1  137   1.079   0.697   0.494
   46SOL    HW2  138   0.987   0.643   0.370
   47SOL     OW  139   0.041   0.819   0.794
   47SOL    HW1  140   0.136   0.800   0.820
   47SOL    HW2  141   0.039   0.901   0.737
   48SOL     OW  142   0.145   1.834   1.584
   48SOL    HW1  143   0.152   1.827   1.683
   48SOL    HW2  144   0.051   1.813   1.556
   49SOL     OW  145   0.876   0.366   0.194
   49SOL    HW1  146   0.932   0.388   0.114
   49SOL    HW2  147   0.868   0.267   0.203
   50SOL     OW  148   1.721   0.604   1.832
   50SOL    HW1  149   1.668   0.684   1.805
   50SOL    HW2  150   1.731   0.542   1.755
   51SOL     OW  151   1.354   1.145   0.560
   51SOL    HW1  152   1.443   1.129   0.518
   51SOL    HW2  153   1.292   1.184   0.493
   52SOL     OW  154   0.530   0.205   0.897
   52SOL    HW1  155   0.550   0.215   0.995
   52SOL    HW2  156   0.537   0.294   0.852
   53SOL     OW  157   1.015   1.447   0.452
   53SOL    HW1  158   0.953   1.518   0.418
   53SOL    HW2  159   1.063   1.480   0.533
   54SOL     OW  160   0.347   1.807   0.867
   54SOL    HW1  161   0.400   1.722   0.872
   54SOL    HW2  162   0.408   1.885   0.882
   55SOL     OW  163   1.801   1.044   0.906
   55SOL    HW1  164   1.761   1.081   0.822
   55SOL    HW2  165   1.731   1.044   0.978
   56SOL     OW  166   1.249   1.554   1.528
   56SOL    HW1  167   1.275   1.461   1.553
   56SOL    HW2  168   1.152   1.557   1.503
   57SOL     OW  169   0.272   0.928   0.254
   57SOL    HW1  170   0.346   0.982   0.214
   57SOL    HW2  171   0.260   0.844   0.201
   58SOL     OW  172   1.462   0.732   0.724
   58SOL    HW1  173   1.461   0.687   0.813
   58SOL    HW2  174   1.545   0.787   0.715
   59SOL     OW  175   0.481   1.280   1.759
   59SOL    HW1  176   0.448   1.287   1.665
   59SOL    HW2  177   0.404   1.287   1.823
   60SOL     OW  178   1.136   1.762   0.252
   60SOL    HW1  179   1.061   1.720   0.304
   60SOL    HW2  180   1.157   1.704   0.173
   61SOL     OW  181   0.197   0.289   1.537
   61SOL    HW1  182   0.126   0.315   1.471
   61SOL    HW2  183   0.178   0.197   1.572
   62SOL     OW  184   1.596   1.360   0.091
   62SOL    HW1  185   1.645   1.444   0.066
   62SOL    HW2  186   1.594   1.298   0.014
   63SOL     OW  187   0.485   1.745   0.318
   63SOL    HW1  188   0.527   1.812   0.379
   63SOL    HW2  189   0.550   1.719   0.247
   64SOL     OW  190   1.372   0.111   0.416
   64SOL    HW1  191   1.358   0.108   0.317
   64SOL    HW2  192   1.469   0.119   0.436
   65SOL     OW  193   0.233   1.790   1.205
   65SOL    HW1  194   0.294   1.715   1.230
   65SOL    HW2  195   0.193   1.772   1.115
   66SOL     OW  196   0.952   1.709   0.885
   66SOL    HW1  197   1.013   1.641   0.925
   66SOL    HW2  198   0.896   1.667   0.814
   67SOL     OW  199   0.386   0.665   0.469
   67SOL    HW1  200   0.393   0.567   0.485
   67SOL    HW2  201   0.289   0.691   0.464
   68SOL     OW  202   1.534   0.222   1.762
   68SOL    HW1  203   1.523   0.268   1.850
   68SOL    HW2  204   1.458   0.158   1.749
   69SOL     OW  205   0.587   0.096   0.090
   69SOL    HW1  206   0.684   0.076   0.078
   69SOL    HW2  207   0.547   0.124   0.003
   70SOL     OW  208   0.758   0.264   1.748
   70SOL    HW1  209   0.846   0.225   1.775
   70SOL    HW2  210   0.705   0.286   1.830
   71SOL     OW  211   0.909   1.543   1.189
   71SOL    HW1  212   0.871   1.504   1.105
   71SOL    HW2  213   0.982   1.483   1.223
   72SOL     OW  214   1.344   0.597   1.438
   72SOL    HW1  215   1.377   0.582   1.532
   72SOL    HW2  216   1.376   0.686   1.406
   73SOL     OW  217   0.776   1.391   0.891
   73SOL    HW1  218   0.861   1.429   0.856
   73SOL    HW2  219   0.713   1.374   0.815
   74SOL     OW  220   0.941   0.478   0.905
   74SOL    HW1  221   0.882   0.465   0.826
   74SOL    HW2  222   0.999   0.397   0.918
   75SOL     OW  223   0.543   0.089   0.528
   75SOL    HW1  224   0.458   0.066   0.576
   75SOL    HW2  225   0.523   0.153   0.453
   76SOL     OW  226   1.344   1.191   5.987
   76SOL    HW1  227   1.410   1.129   0.030
   76SOL    HW2  228   1.293   1.240   0.058
   77SOL     OW  229   0.317   0.072   0.197
   77SOL    HW1  230   0.411   0.077   0.163
   77SOL    HW2  231   0.317   0.036   0.290
   78SOL     OW  232   0.976   0.292   0.494
   78SOL    HW1  233   0.916   0.266   0.418
   78SOL    HW2  234   1.069   0.303   0.461
   79SOL     OW  235   1.090   0.669   1.455
   79SOL    HW1  236   1.022   0.596   1.461
   79SOL    HW2  237   1.181   0.628   1.442
   80SOL     OW  238   1.211   1.564   0.813
   80SOL    HW1  239   1.257   1.594   0.730
   80SOL    HW2  240   1.275   1.569   0.890
   81SOL     OW  241   0.450   1.152   0.733
   81SOL    HW1  242   0.373   1.116   0.786
   81SOL    HW2  243   0.429   1.146   0.636
   82SOL     OW  244   1.307   1.808   0.599
   82SOL    HW1  245   1.332   1.875   0.529
   82SOL    HW2  246   1.246   1.851   0.666
   83SOL     OW  247   1.021   0.520   0.023
   83SOL    HW1  248   0.944   0.577   5.994
   83SOL    HW2  249   1.051   0.549   0.114
   84SOL     OW  250   0.084   0.563   1.435
   84SOL    HW1  251   0.158   0.554   1.367
   84SOL    HW2  252   0.094   0.650   1.483
   85SOL     OW  253   0.536   0.277   1.191
   85SOL    HW1  254   0.605   0.214   1.225
   85SOL    HW2  255   0.445   0.246   1.218
   86SOL     OW  256   0.838   0.418   0.669
   86SOL    HW1  257   0.782   0.477   0.611
   86SOL    HW2  258   0.901   0.366   0.611
   87SOL     OW  259   1.003   0.043   0.737
   87SOL    HW1  260   0.925   0.045   0.675
   87SOL    HW2  261   0.993   5.968   0.802
   88SOL     OW  262   1.420   1.159   0.854
   88SOL    HW1  263   1.362   1.094   0.903
   88SOL    HW2  264   1.391   1.162   0.758
   89SOL     OW  265   1.500   0.580   0.952
   89SOL    HW1  266   1.437   0.502   0.943
   89SOL    HW2  267   1.543   0.578   1.042
   90SOL     OW  268   1.882   0.770   0.378
   90SOL    HW1  269   1.927   0.722   0.454
   90SOL    HW2  270   1.828   0.704   0.325
   91SOL     OW  271   0.470   1.386   0.208
   91SOL    HW1  272   0.388   1.357   0.257
   91SOL    HW2  273   0.445   1.415   0.115
   92SOL     OW  274   1.717   1.292   0.704
   92SOL    HW1  275   1.811   1.313   0.678
   92SOL    HW2  276   1.664   1.377   0.708
   93SOL     OW  277   1.417   0.615   0.137
   93SOL    HW1  278   1.342   0.575   0.189
   93SOL    HW2  279   1.454   0.547   0.074
   94SOL     OW  280   0.527   0.246   0.317
   94SOL    HW1  281   0.555   0.206   0.230
   94SOL    HW2  282   0.500   0.342   0.302
   95SOL     OW  283   1.743   1.278   1.569
   95SOL    HW1  284   1.823   1.219   1.580
   95SOL    HW2  285   1.768   1.372   1.591
   96SOL     OW  286   1.055   1.346   1.356
   96SOL    HW1  287   0.965   1.327   1.396
   96SOL    HW2  288   1.126   1.304   1.414
   97SOL     OW  289   1.604   1.663   1.653
   97SOL    HW1  290   1.595   1.682   1.555
   97SOL    HW2  291   1.689   1.613   1.669
   98SOL     OW  292   1.058   1.172   1.130
   98SOL    HW1  293   1.061   1.241   1.203
   98SOL    HW2  294   1.037   1.217   1.043
   99SOL     OW  295   1.619   1.078   1.107
   99SOL    HW1  296   1.622   1.159   1.166
   99SOL    HW2  297   1.564   1.099   1.025
  100SOL     OW  298   0.938   0.164   1.354
  100SOL    HW1  299   0.956   0.087   1.294
  100SOL    HW2  300   1.009   0.169   1.424
  101SOL     OW  301   0.951   1.101   1.716
  101SOL    HW1  302   0.852   1.100   1.736
  101SOL    HW2  303   0.970   1.040   1.640
  102SOL     OW  304   0.725   1.081   0.344
  102SOL    HW1  305   0.664   1.080   0.424
  102SOL    HW2  306   0.788   1.004   0.349
  103SOL     OW  307   0.413   0.814   1.256
  103SOL    HW1  308   0.496   0.816   1.312
  103SOL    HW2  309   0.373   0.723   1.259
  104SOL     OW  310   1.274   0.395   1.288
  104SOL    HW1  311   1.304   0.476   1.337
  104SOL    HW2  312   1.185   0.413   1.245
  105SOL     OW  313   0.084   1.552   1.339
  105SOL    HW1  314   0.031   1.622   1.291
  105SOL    HW2  315   0.177   1.585   1.354
  106SOL     OW  316   0.407   1.161   0.463
  106SOL    HW1  317   0.362   1.232   0.408
  106SOL    HW2  318   0.356   1.075   0.455
  107SOL     OW  319   0.567   0.536   0.859
  107SOL    HW1  320   0.562   0.602   0.783
  107SOL    HW2  321   0.645   0.558   0.917
  108SOL     OW  322   1.265   1.340   0.373
  108SOL    HW1  323   1.302   1.423   0.414
  108SOL    HW2  324   1.167   1.335   0.390
  109SOL     OW  325   1.317   1.436   1.145
  109SOL    HW1  326   1.371   1.466   1.225
  109SOL    HW2  327   1.254   1.365   1.173
  110SOL     OW  328   1.632   0.639   0.496
  110SOL    HW1  329   1.557   0.667   0.556
  110SOL    HW2  330   1.632   0.696   0.414
  111SOL     OW  331   0.366   1.552   1.273
  111SOL    HW1  332   0.366   1.496   1.190
  111SOL    HW2  333   0.460   1.566   1.303
  112SOL     OW  334   0.401   0.715   1.578
  112SOL    HW1  335   0.464   0.765   1.518
  112SOL    HW2  336   0.449   0.640   1.623
  113SOL     OW  337   1.629   0.819   1.673
  113SOL    HW1  338   1.532   0.839   1.662
  113SOL    HW2  339   1.680   0.858   1.597
  114SOL     OW  340   1.009   0.140   1.762
  114SOL    HW1  341   1.073   0.196   1.709
  114SOL    HW2  342   0.977   0.064   1.706
  115SOL     OW  343   0.465   0.000   1.741
  115SOL    HW1  344   0.475   5.999   1.641
  115SOL    HW2  345   0.403   0.074   1.768
  116SOL     OW  346   0.579   0.867   1.026
  116SOL    HW1  347   0.634   0.951   1.022
  116SOL    HW2  348   0.515   0.873   1.102
  117SOL     OW  349   1.331   0.841   1.048
  117SOL    HW1  350   1.239   0.844   1.010
  117SOL    HW2  351   1.369   0.749   1.036
  118SOL     OW  352   1.219   0.516   0.265
  118SOL    HW1  353   1.238   0.443   0.331
  118SOL    HW2  354   1.159   0.583   0.308
  119SOL     OW  355   0.307   0.197   1.284
  119SOL    HW1  356   0.326   0.191   1.382
  119SOL    HW2  357   0.277   0.107   1.250
  120SOL     OW  358   0.042   1.296   1.298
  120SOL    HW1  359   0.099   1.247   1.363
  120SOL    HW2  360   0.052   1.395   1.312
  121SOL     OW  361   0.743   0.646   1.055
  121SOL    HW1  362   0.834   0.634   1.015
  121SOL    HW2  363   0.708   0.737   1.030
  122SOL     OW  364   1.779   0.975   1.828
  122SOL    HW1  365   1.731   0.907   1.772
  122SOL    HW2  366   1.735   0.981   1.917
  123SOL     OW  367   0.295   0.049   0.616
  123SOL    HW1  368   0.288   0.141   0.654
  123SOL    HW2  369   0.221   5.992   0.653
  124SOL     OW  370   1.636   0.391   0.355
  124SOL    HW1  371   1.667   0.307   0.398
  124SOL    HW2  372   1.597   0.452   0.424
  125SOL     OW  373   1.018   0.756   0.968
  125SOL    HW1  374   1.017   0.751   1.068
  125SOL    HW2  375   1.002   0.665   0.931
  126SOL     OW  376   0.993   1.591   1.720
  126SOL    HW1  377   0.957   1.627   1.634
  126SOL    HW2  378   1.016   1.495   1.709
  127SOL     OW  379   1.840   1.528   1.631
  127SOL    HW1  380   1.867   1.554   1.538
  127SOL    HW2  381   1.920   1.529   1.691
  128SOL     OW  382   0.352   0.937   1.793
  128SOL    HW1  383   0.421   0.951   1.865
  128SOL    HW2  384   0.384   0.868   1.728
  129SOL     OW  385   1.483   0.269   0.175
  129SOL    HW1  386   1.527   0.182   0.152
  129SOL    HW2  387   1.541   0.318   0.240
  130SOL     OW  388   1.305   0.838   0.047
  130SOL    HW1  389   1.338   0.748   0.076
  130SOL    HW2  390   1.293   0.839   5.947
  131SOL     OW  391   1.056   1.351   0.896
  131SOL    HW1  392   1.054   1.280   0.826
  131SOL    HW2  393   1.110   1.429   0.863
  132SOL     OW  394   0.308   0.792   0.927
  132SOL    HW1  395   0.402   0.823   0.911
  132SOL    HW2  396   0.310   0.699   0.965
  133SOL     OW  397   0.351   0.518   1.004
  133SOL    HW1  398   0.312   0.426   1.008
  133SOL    HW2  399   0.433   0.517   0.947
  134SOL     OW  400   1.188   0.367   1.692
  134SOL    HW1  401   1.112   0.418   1.732
  134SOL    HW2  402   1.265   0.429   1.674
  135SOL     OW  403   1.166   0.198   1.499
  135SOL    HW1  404   1.181   0.264   1.572
  135SOL    HW2  405   1.175   0.244   1.410
  136SOL     OW  406   5.977   1.308   0.177
  136SOL    HW1  407   5.884   1.344   0.190
  136SOL    HW2  408   5.988   1.226   0.232
  137SOL     OW  409   0.091   1.785   0.954
  137SOL    HW1  410   0.049   1.712   0.901
  137SOL    HW2  411   0.182   1.804   0.917
  138SOL     OW  412   0.500   1.590   0.897
  138SOL    HW1  413   0.582   1.640   0.925
  138SOL    HW2  414   0.526   1.513   0.839
  139SOL     OW  415   0.983   0.765   1.225
  139SOL    HW1  416   1.040   0.766   1.307
  139SOL    HW2  417   0.888   0.747   1.251
  140SOL     OW  418   0.016   0.572   1.142
  140SOL    HW1  419   0.063   0.496   1.098
  140SOL    HW2  420   0.021   0.562   1.241
  141SOL     OW  421   0.228   0.506   1.734
  141SOL    HW1  422   0.276   0.456   1.661
  141SOL    HW2  423   0.173   0.579   1.693
  142SOL     OW  424   1.384   0.931   1.639
  142SOL    HW1  425   1.416   1.026   1.637
  142SOL    HW2  426   1.363   0.901   1.546
  143SOL     OW  427   0.836   0.590   0.325
  143SOL    HW1  428   0.823   0.508   0.269
  143SOL    HW2  429   0.751   0.643   0.326
  144SOL     OW  430   1.620   0.551   1.195
  144SOL    HW1  431   1.616   0.497   1.279
  144SOL    HW2  432   1.713   0.549   1.159
  145SOL     OW  433   0.282   1.571   1.765
  145SOL    HW1  434   0.221   1.629   1.819
  145SOL    HW2  435   0.261   1.474   1.783
  146SOL     OW  436   0.695   0.481   1.264
  146SOL    HW1  437   0.645   0.398   1.243
  146SOL    HW2  438   0.707   0.535   1.181
  147SOL     OW  439   0.915   1.677   1.482
  147SOL    HW1  440   0.914   1.623   1.397
  147SOL    HW2  441   0.899   1.773   1.460
  148SOL     OW  442   0.475   0.492   0.231
  148SOL    HW1  443   0.544   0.563   0.245
  148SOL    HW2  444   0.387   0.535   0.213
  149SOL     OW  445   0.174   1.144   1.465
  149SOL    HW1  446   0.130   1.124   1.553
  149SOL    HW2  447   0.161   1.067   1.403
  150SOL     OW  448   1.296   1.045   1.229
  150SOL    HW1  449   1.334   0.991   1.155
  150SOL    HW2  450   1.200   1.066   1.208
  151SOL     OW  451   1.308   0.889   0.326
  151SOL    HW1  452   1.221   0.863   0.368
  151SOL    HW2  453   1.338   0.818   0.264
  152SOL     OW  454   1.781   1.709   1.153
  152SOL    HW1  455   1.855   1.736   1.093
  152SOL    HW2  456   1.747   1.619   1.126
  153SOL     OW  457   1.224   1.696   1.149
  153SOL    HW1  458   1.293   1.757   1.112
  153SOL    HW2  459   1.253   1.601   1.135
  154SOL     OW  460   0.080   1.258   1.027
  154SOL    HW1  461   0.074   1.252   1.127
  154SOL    HW2  462   5.997   1.218   0.987
  155SOL     OW  463   0.703   1.667   1.749
  155SOL    HW1  464   0.606   1.687   1.733
  155SOL    HW2  465   0.755   1.685   1.666
  156SOL     OW  466   0.913   0.033   0.134
  156SOL    HW1  467   0.962   0.099   0.077
  156SOL    HW2  468   0.977   5.988   0.196
  157SOL     OW  469   1.709   0.174   0.500
  157SOL    HW1  470   1.784   0.142   0.442
  157SOL    HW2  471   1.673   0.098   0.554
  158SOL     OW  472   1.339   1.589   0.443
  158SOL    HW1  473   1.419   1.595   0.384
  158SOL    HW2  474   1.322   1.678   0.486
  159SOL     OW  475   0.125   1.795   1.844
  159SOL    HW1  476   0.055   1.728   1.871
  159SOL    HW2  477   0.171   1.830   1.926
  160SOL     OW  478   1.277   0.902   0.645
  160SOL    HW1  479   1.354   0.844   0.673
  160SOL    HW2  480   1.313   0.986   0.604
  161SOL     OW  481   0.782   1.236   1.417
  161SOL    HW1  482   0.767   1.298   1.495
  161SOL    HW2  483   0.703   1.240   1.356
  162SOL     OW  484   0.652   1.614   0.145
  162SOL    HW1  485   0.684   1.580   0.056
  162SOL    HW2  486   0.621   1.536   0.201
  163SOL     OW  487   1.628   1.739   1.380
  163SOL    HW1  488   1.682   1.740   1.296
  163SOL    HW2  489   1.615   1.833   1.412
  164SOL     OW  490   1.879   0.131   0.955
  164SOL    HW1  491   1.893   0.056   0.890
  164SOL    HW2  492   1.788   0.171   0.941
  165SOL     OW  493   0.257   0.281   0.724
  165SOL    HW1  494   0.176   0.318   0.678
  165SOL    HW2  495   0.264   0.322   0.815
  166SOL     OW  496   1.240   1.580   0.027
  166SOL    HW1  497   1.209   1.493   0.065
  166SOL    HW2  498   1.180   1.608   5.953
  167SOL     OW  499   0.838   0.995   1.338
  167SOL    HW1  500   0.891   1.007   1.255
  167SOL    HW2  501   0.812   1.085   1.374
  168SOL     OW  502   0.901   0.890   0.259
  168SOL    HW1  503   0.977   0.919   0.201
  168SOL    HW2  504   0.915   0.795   0.287
  169SOL     OW  505   1.488   1.678   0.078
  169SOL    HW1  506   1.402   1.627   0.074
  169SOL    HW2  507   1.534   1.673   5.990
  170SOL     OW  508   0.391   1.293   1.501
  170SOL    HW1  509   0.388   1.354   1.422
  170SOL    HW2  510   0.318   1.225   1.494
  171SOL     OW  511   1.623   1.286   1.296
  171SOL    HW1  512   1.678   1.272   1.379
  171SOL    HW2  513   1.555   1.356   1.314
  172SOL     OW  514   1.021   1.139   0.724
  172SOL    HW1  515   0.975   1.059   0.762
  172SOL    HW2  516   1.072   1.113   0.642
  173SOL     OW  517   1.072   0.181   0.954
  173SOL    HW1  518   1.064   0.142   0.862
  173SOL    HW2  519   1.002   0.140   1.013
  174SOL     OW  520   0.608   1.478   0.451
  174SOL    HW1  521   0.658   1.412   0.395
  174SOL    HW2  522   0.535   1.520   0.397
  175SOL     OW  523   1.722   0.388   1.401
  175SOL    HW1  524   1.787   0.463   1.402
  175SOL    HW2  525   1.754   0.316   1.339
  176SOL     OW  526   0.219   1.338   0.311
  176SOL    HW1  527   0.122   1.332   0.289
  176SOL    HW2  528   0.230   1.382   0.400
  177SOL     OW  529   0.113   1.060   1.732
  177SOL    HW1  530   0.041   0.994   1.754
  177SOL    HW2  531   0.203   1.020   1.751
  178SOL     OW  532   0.688   0.204   1.456
  178SOL    HW1  533   0.772   0.189   1.405
  178SOL    HW2  534   0.711   0.231   1.550
  179SOL     OW  535   0.058   0.426   0.025
  179SOL    HW1  536   0.017   0.340   0.057
  179SOL    HW2  537   0.157   0.415   0.016
  180SOL     OW  538   1.423   0.849   1.373
  180SOL    HW1  539   1.366   0.920   1.333
  180SOL    HW2  540   1.516   0.855   1.334
  181SOL     OW  541   0.052   0.192   0.311
  181SOL    HW1  542   0.090   0.277   0.346
  181SOL    HW2  543   0.123   0.142   0.261
  182SOL     OW  544   1.135   1.359   0.137
  182SOL    HW1  545   1.063   1.290   0.129
  182SOL    HW2  546   1.195   1.336   0.214
  183SOL     OW  547   0.625   0.824   1.422
  183SOL    HW1  548   0.677   0.907   1.403
  183SOL    HW2  549   0.688   0.748   1.440
  184SOL     OW  550   1.483   1.781   0.989
  184SOL    HW1  551   1.471   1.851   0.918
  184SOL    HW2  552   1.580   1.771   1.010
  185SOL     OW  553   0.705   0.553   1.714
  185SOL    HW1  554   0.735   0.618   1.784
  185SOL    HW2  555   0.737   0.461   1.737
  186SOL     OW  556   1.479   1.198   1.619
  186SOL    HW1  557   1.450   1.206   1.715
  186SOL    HW2  558   1.568   1.242   1.608
  187SOL     OW  559   0.387   1.699   1.559
  187SOL    HW1  560   0.305   1.749   1.535
  187SOL    HW2  561   0.365   1.631   1.629
  188SOL     OW  562   1.671   0.841   1.253
  188SOL    HW1  563   1.654   0.761   1.195
  188SOL    HW2  564   1.665   0.924   1.198
  189SOL     OW  565   1.240   0.337   0.448
  189SOL    HW1  566   1.285   0.248   0.444
  189SOL    HW2  567   1.246   0.374   0.540
  190SOL     OW  568   0.544   0.725   0.678
  190SOL    HW1  569   0.585   0.816   0.672
  190SOL    HW2  570   0.483   0.711   0.600
  191SOL     OW  571   1.737   0.383   1.668
  191SOL    HW1  572   1.730   0.385   1.568
  191SOL    HW2  573   1.671   0.318   1.705
  192SOL     OW  574   1.756   0.955   1.476
  192SOL    HW1  575   1.749   1.052   1.454
  192SOL    HW2  576   1.732   0.901   1.395
  193SOL     OW  577   0.818   1.406   0.010
  193SOL    HW1  578   0.836   1.368   0.101
  193SOL    HW2  579   0.887   1.476   5.990
  194SOL     OW  580   0.681   1.811   0.945
  194SOL    HW1  581   0.627   1.895   0.943
  194SOL    HW2  582   0.764   1.824   0.890
  195SOL     OW  583   0.870   0.960   0.892
  195SOL    HW1  584   0.928   0.886   0.926
  195SOL    HW2  585   0.850   1.024   0.966
  196SOL     OW  586   1.092   1.002   0.083
  196SOL    HW1  587   1.033   0.983   0.005
  196SOL    HW2  588   1.178   0.952   0.073
  197SOL     OW  589   1.821   1.557   0.861
  197SOL    HW1  590   1.736   1.555   0.808
  197SOL    HW2  591   1.810   1.501   0.944
  198SOL     OW  592   0.233   1.312   1.866
  198SOL    HW1  593   0.172   1.247   1.821
  198SOL    HW2  594   0.199   1.331   1.958
  199SOL     OW  595   0.090   1.246   0.652
  199SOL    HW1  596   0.071   1.219   0.746
  199SOL    HW2  597   0.173   1.200   0.620
  200SOL     OW  598   0.727   1.389   1.615
  200SOL    HW1  599   0.638   1.358   1.647
  200SOL    HW2  600   0.760   1.463   1.673
  201SOL     OW  601   1.815   0.202   1.239
  201SOL    HW1  602   1.826   0.119   1.294
  201SOL    HW2  603   1.842   0.183   1.144
  202SOL     OW  604   0.388   0.409   0.526
  202SOL    HW1  605   0.458   0.353   0.482
  202SOL    HW2  606   0.340   0.355   0.594
  203SOL     OW  607   1.692   1.461   1.095
  203SOL    HW1  608   1.612   1.444   1.038
  203SOL    HW2  609   1.693   1.395   1.170
  204SOL     OW  610   0.308   0.566   1.264
  204SOL    HW1  611   0.358   0.507   1.327
  204SOL    HW2  612   0.329   0.540   1.170
  205SOL     OW  613   0.809   1.572   0.675
  205SOL    HW1  614   0.844   1.593   0.584
  205SOL    HW2  615   0.715   1.537   0.667
  206SOL     OW  616   1.483   0.269   1.143
  206SOL    HW1  617   1.489   0.182   1.192
  206SOL    HW2  618   1.450   0.339   1.206
  207SOL     OW  619   0.999   5.954   1.191
  207SOL    HW1  620   0.935   5.932   1.117
  207SOL    HW2  621   1.090   5.971   1.153
  208SOL     OW  622   0.812   1.326   0.284
  208SOL    HW1  623   0.763   1.240   0.296
  208SOL    HW2  624   0.878   1.337   0.359
  209SOL     OW  625   0.649   1.562   1.283
  209SOL    HW1  626   0.636   1.640   1.345
  209SOL    HW2  627   0.744   1.560   1.252
  210SOL     OW  628   1.289   0.030   0.178
  210SOL    HW1  629   1.362   5.970   0.145
  210SOL    HW2  630   1.247   5.990   0.259
  211SOL     OW  631   1.268   0.444   0.690
  211SOL    HW1  632   1.224   0.534   0.688
  211SOL    HW2  633   1.300   0.424   0.782
  212SOL     OW  634   1.638   0.236   0.903
  212SOL    HW1  635   1.592   0.248   0.991
  212SOL    HW2  636   1.607   0.305   0.838
  213SOL     OW  637   0.006   1.087   0.323
  213SOL    HW1  638   0.085   1.060   0.269
  213SOL    HW2  639   0.008   1.041   0.412
  214SOL     OW  640   0.859   1.666   0.355
  214SOL    HW1  641   0.787   1.657   0.286
  214SOL    HW2  642   0.849   1.752   0.404
  215SOL     OW  643   0.272   0.652   2.008
  215SOL    HW1  644   0.192   0.665   2.066
  215SOL    HW2  645   0.244   0.617   1.919
  216SOL     OW  646   0.185   0.304   2.908
  216SOL    HW1  647   0.240   0.234   2.954
  216SOL    HW2  648   0.128   0.261   2.838
  217SOL     OW  649   0.019   0.355   2.493
  217SOL    HW1  650   5.970   0.370   2.579
  217SOL    HW2  651   5.962   0.303   2.431
  218SOL     OW  652   0.568   1.234   3.098
  218SOL    HW1  653   0.476   1.206   3.069
  218SOL    HW2  654   0.578   1.333   3.084
  219SOL     OW  655   1.563   1.517   2.575
  219SOL    HW1  656   1.521   1.479   2.657
  219SOL    HW2  657   1.494   1.526   2.503
  220SOL     OW  658   1.119   0.688   2.512
  220SOL    HW1  659   1.164   0.777   2.522
  220SOL    HW2  660   1.044   0.682   2.577
  221SOL     OW  661   1.722   0.575   2.109
  221SOL    HW1  662   1.729   0.578   2.009
  221SOL    HW2  663   1.659   0.502   2.135
  222SOL     OW  664   0.763   1.164   2.916
  222SOL    HW1  665   0.690   1.179   2.982
  222SOL    HW2  666   0.789   1.251   2.874
  223SOL     OW  667   0.856   0.814   3.667
  223SOL    HW1  668   0.843   0.896   3.722
  223SOL    HW2  669   0.875   0.840   3.572
  224SOL     OW  670   0.673   0.982   2.565
  224SOL    HW1  671   0.741   0.969   2.637
  224SOL    HW2  672   0.617   1.063   2.585
  225SOL     OW  673   0.706   1.148   3.675
  225SOL    HW1  674   0.764   1.230   3.679
  225SOL    HW2  675   0.614   1.174   3.645
  226SOL     OW  676   0.359   1.421   2.886
  226SOL    HW1  677   0.268   1.396   2.853
  226SOL    HW2  678   0.397   1.492   2.828
  227SOL     OW  679   1.477   1.517   3.212
  227SOL    HW1  680   1.542   1.593   3.224
  227SOL    HW2  681   1.398   1.532   3.271
  228SOL     OW  682   0.416   0.428   3.328
  228SOL    HW1  683   0.488   0.362   3.309
  228SOL    HW2  684   0.332   0.380   3.356
  229SOL     OW  685   1.582   0.443   2.599
  229SOL    HW1  686   1.507   0.475   2.540
  229SOL    HW2  687   1.617   0.519   2.653
  230SOL     OW  688   0.283   1.692   2.353
  230SOL    HW1  689   0.299   1.781   2.394
  230SOL    HW2  690   0.329   1.686   2.265
  231SOL     OW  691   1.100   1.347   3.561
  231SOL    HW1  692   1.158   1.355   3.642
  231SOL    HW2  693   1.043   1.266   3.569
  232SOL     OW  694   0.237   1.450   2.450
  232SOL    HW1  695   0.262   1.544   2.428
  232SOL    HW2  696   0.138   1.446   2.469
  233SOL     OW  697   0.272   1.071   2.776
  233SOL    HW1  698   0.259   0.978   2.810
  233SOL    HW2  699   0.224   1.136   2.836
  234SOL     OW  700   0.635   1.772   3.314
  234SOL    HW1  701   0.550   1.738   3.354
  234SOL    HW2  702   0.643   1.870   3.332
  235SOL     OW  703   0.589   0.960   2.014
  235SOL    HW1  704   0.615   1.027   1.944
  235SOL    HW2  705   0.626   0.988   2.102
  236SOL     OW  706   1.682   0.097   3.357
  236SOL    HW1  707   1.630   0.147   3.288
  236SOL    HW2  708   1.668   0.139   3.446
  237SOL     OW  709   0.100   0.612   2.431
  237SOL    HW1  710   0.070   0.518   2.449
  237SOL    HW2  711   0.036   0.676   2.472
  238SOL     OW  712   1.869   1.736   2.203
  238SOL    HW1  713   1.924   1.709   2.282
  238SOL    HW2  714   1.877   1.835   2.189
  239SOL     OW  715   0.042   1.578   2.025
  239SOL    HW1  716   0.011   1.483   2.021
  239SOL    HW2  717   0.015   1.618   2.113
  240SOL     OW  718   1.669   0.928   2.505
  240SOL    HW1  719   1.745   0.876   2.466
  240SOL    HW2  720   1.642   1.000   2.442
  241SOL     OW  721   1.650   1.156   2.343
  241SOL    HW1  722   1.735   1.136   2.294
  241SOL    HW2  723   1.671   1.195   2.432
  242SOL     OW  724   0.098   0.763   3.559
  242SOL    HW1  725   0.179   0.771   3.617
  242SOL    HW2  726   0.115   0.807   3.471
  243SOL     OW  727   0.594   1.393   2.585
  243SOL    HW1  728   0.546   1.307   2.600
  243SOL    HW2  729   0.584   1.422   2.490
  244SOL     OW  730   1.301   1.230   3.311
  244SOL    HW1  731   1.310   1.169   3.232
  244SOL    HW2  732   1.378   1.216   3.373
  245SOL     OW  733   0.786   0.019   2.456
  245SOL    HW1  734   0.823   0.106   2.424
  245SOL    HW2  735   0.690   0.011   2.428
  246SOL     OW  736   0.216   0.989   3.068
  246SOL    HW1  737   0.299   0.933   3.076
  246SOL    HW2  738   0.147   0.939   3.017
  247SOL     OW  739   1.571   0.961   2.049
  247SOL    HW1  740   1.489   0.921   2.090
  247SOL    HW2  741   1.607   1.033   2.108
  248SOL     OW  742   1.217   1.819   3.481
  248SOL    HW1  743   1.173   1.866   3.405
  248SOL    HW2  744   1.235   1.724   3.457
  249SOL     OW  745   0.306   0.213   3.680
  249SOL    HW1  746   0.379   0.277   3.705
  249SOL    HW2  747   0.221   0.264   3.668
  250SOL     OW  748   1.462   1.412   2.792
  250SOL    HW1  749   1.399   1.428   2.868
  250SOL    HW2  750   1.472   1.314   2.777
  251SOL     OW  751   1.650   1.751   2.451
  251SOL    HW1  752   1.609   1.728   2.363
  251SOL    HW2  753   1.643   1.673   2.513
  252SOL     OW  754   0.617   0.706   2.144
  252SOL    HW1  755   0.622   0.792   2.093
  252SOL    HW2  756   0.549   0.714   2.216
  253SOL     OW  757   1.322   0.363   2.809
  253SOL    HW1  758   1.226   0.335   2.814
  253SOL    HW2  759   1.376   0.310   2.874
  254SOL     OW  760   1.591   1.670   2.188
  254SOL    HW1  761   1.688   1.689   2.202
  254SOL    HW2  762   1.573   1.657   2.091
  255SOL     OW  763   0.786   0.627   3.325
  255SOL    HW1  764   0.755   0.594   3.413
  255SOL    HW2  765   0.754   0.565   3.253
  256SOL     OW  766   1.397   0.527   3.550
  256SOL    HW1  767   1.373   0.557   3.642
  256SOL    HW2  768   1.469   0.458   3.555
  257SOL     OW  769   0.974   0.898   3.411
  257SOL    HW1  770   1.034   0.821   3.387
  257SOL    HW2  771   0.920   0.924   3.330
  258SOL     OW  772   1.004   0.414   3.086
  258SOL    HW1  773   0.921   0.427   3.141
  258SOL    HW2  774   0.986   0.347   3.014
  259SOL     OW  775   1.058   0.690   2.230
  259SOL    HW1  776   1.074   0.697   2.329
  259SOL    HW2  777   0.976   0.635   2.213
  260SOL     OW  778   0.047   0.803   2.651
  260SOL    HW1  779   0.137   0.782   2.690
  260SOL    HW2  780   0.050   0.893   2.608
  261SOL     OW  781   0.144   1.834   3.442
  261SOL    HW1  782   0.152   1.826   3.542
  261SOL    HW2  783   0.053   1.805   3.414
  262SOL     OW  784   0.871   0.358   2.000
  262SOL    HW1  785   0.941   0.396   1.940
  262SOL    HW2  786   0.912   0.285   2.056
  263SOL     OW  787   1.722   0.603   3.698
  263SOL    HW1  788   1.667   0.681   3.670
  263SOL    HW2  789   1.734   0.540   3.621
  264SOL     OW  790   1.379   1.161   2.417
  264SOL    HW1  791   1.462   1.147   2.363
  264SOL    HW2  792   1.310   1.208   2.361
  265SOL     OW  793   0.535   0.214   2.769
  265SOL    HW1  794   0.547   0.217   2.869
  265SOL    HW2  795   0.552   0.305   2.731
  266SOL     OW  796   1.026   1.482   2.309
  266SOL    HW1  797   0.959   1.534   2.256
  266SOL    HW2  798   1.057   1.538   2.386
  267SOL     OW  799   0.347   1.816   2.739
  267SOL    HW1  800   0.402   1.733   2.737
  267SOL    HW2  801   0.405   1.894   2.762
  268SOL     OW  802   1.803   1.033   2.760
  268SOL    HW1  803   1.774   1.088   2.682
  268SOL    HW2  804   1.737   1.042   2.834
  269SOL     OW  805   1.254   1.556   3.390
  269SOL    HW1  806   1.279   1.463   3.416
  269SOL    HW2  807   1.156   1.562   3.374
  270SOL     OW  808   0.324   0.962   2.113
  270SOL    HW1  809   0.423   0.963   2.098
  270SOL    HW2  810   0.286   0.878   2.077
  271SOL     OW  811   1.455   0.752   2.599
  271SOL    HW1  812   1.452   0.690   2.677
  271SOL    HW2  813   1.546   0.791   2.591
  272SOL     OW  814   0.481   1.279   3.620
  272SOL    HW1  815   0.447   1.282   3.526
  272SOL    HW2  816   0.404   1.288   3.684
  273SOL     OW  817   1.182   1.753   2.090
  273SOL    HW1  818   1.094   1.726   2.128
  273SOL    HW2  819   1.195   1.709   2.001
  274SOL     OW  820   0.200   0.289   3.391
  274SOL    HW1  821   0.124   0.316   3.332
  274SOL    HW2  822   0.179   0.200   3.433
  275SOL     OW  823   1.589   1.367   1.995
  275SOL    HW1  824   1.581   1.462   1.964
  275SOL    HW2  825   1.524   1.310   1.944
  276SOL     OW  826   0.453   1.755   2.152
  276SOL    HW1  827   0.503   1.817   2.213
  276SOL    HW2  828   0.518   1.699   2.101
  277SOL     OW  829   1.368   0.109   2.271
  277SOL    HW1  830   1.368   0.117   2.171
  277SOL    HW2  831   1.458   0.130   2.307
  278SOL     OW  832   0.233   1.790   3.069
  278SOL    HW1  833   0.290   1.711   3.091
  278SOL    HW2  834   0.195   1.779   2.978
  279SOL     OW  835   0.938   1.716   2.761
  279SOL    HW1  836   0.989   1.649   2.815
  279SOL    HW2  837   0.887   1.670   2.689
  280SOL     OW  838   0.388   0.679   2.334
  280SOL    HW1  839   0.394   0.580   2.349
  280SOL    HW2  840   0.293   0.707   2.336
  281SOL     OW  841   1.534   0.226   3.623
  281SOL    HW1  842   1.526   0.271   3.712
  281SOL    HW2  843   1.457   0.165   3.609
  282SOL     OW  844   0.602   0.111   1.942
  282SOL    HW1  845   0.699   0.088   1.945
  282SOL    HW2  846   0.561   0.075   1.859
  283SOL     OW  847   0.756   0.250   3.613
  283SOL    HW1  848   0.846   0.219   3.640
  283SOL    HW2  849   0.712   0.297   3.689
  284SOL     OW  850   0.916   1.539   3.057
  284SOL    HW1  851   0.873   1.500   2.976
  284SOL    HW2  852   0.987   1.476   3.090
  285SOL     OW  853   1.343   0.602   3.302
  285SOL    HW1  854   1.376   0.584   3.394
  285SOL    HW2  855   1.373   0.693   3.272
  286SOL     OW  856   0.775   1.399   2.786
  286SOL    HW1  857   0.860   1.429   2.744
  286SOL    HW2  858   0.707   1.380   2.714
  287SOL     OW  859   0.943   0.483   2.764
  287SOL    HW1  860   0.885   0.475   2.683
  287SOL    HW2  861   0.984   0.394   2.785
  288SOL     OW  862   0.546   0.072   2.352
  288SOL    HW1  863   0.459   0.058   2.400
  288SOL    HW2  864   0.539   0.153   2.294
  289SOL     OW  865   1.406   1.190   1.870
  289SOL    HW1  866   1.436   1.099   1.901
  289SOL    HW2  867   1.339   1.226   1.935
  290SOL     OW  868   0.289   0.054   2.059
  290SOL    HW1  869   0.347   0.093   1.987
  290SOL    HW2  870   0.336   5.977   2.101
  291SOL     OW  871   0.969   0.266   2.346
  291SOL    HW1  872   0.916   0.233   2.268
  291SOL    HW2  873   1.062   0.286   2.318
  292SOL     OW  874   1.088   0.669   3.319
  292SOL    HW1  875   1.026   0.593   3.338
  292SOL    HW2  876   1.180   0.633   3.304
  293SOL     OW  877   1.197   1.553   2.656
  293SOL    HW1  878   1.226   1.592   2.568
  293SOL    HW2  879   1.274   1.554   2.719
  294SOL     OW  880   0.475   1.162   2.619
  294SOL    HW1  881   0.396   1.132   2.672
  294SOL    HW2  882   0.451   1.166   2.522
  295SOL     OW  883   1.295   1.792   2.440
  295SOL    HW1  884   1.327   1.859   2.374
  295SOL    HW2  885   1.242   1.837   2.512
  296SOL     OW  886   1.028   0.539   1.816
  296SOL    HW1  887   0.974   0.624   1.815
  296SOL    HW2  888   1.090   0.540   1.894
  297SOL     OW  889   0.080   0.553   3.305
  297SOL    HW1  890   0.153   0.539   3.238
  297SOL    HW2  891   0.082   0.647   3.337
  298SOL     OW  892   0.544   0.268   3.052
  298SOL    HW1  893   0.604   0.207   3.105
  298SOL    HW2  894   0.449   0.250   3.076
  299SOL     OW  895   0.847   0.417   2.521
  299SOL    HW1  896   0.788   0.471   2.462
  299SOL    HW2  897   0.906   0.359   2.464
  300SOL     OW  898   1.001   0.041   2.612
  300SOL    HW1  899   0.923   0.043   2.549
  300SOL    HW2  900   1.002   5.954   2.661
  301SOL     OW  901   1.451   1.132   2.749
  301SOL    HW1  902   1.362   1.092   2.770
  301SOL    HW2  903   1.474   1.114   2.654
  302SOL     OW  904   1.484   0.591   2.817
  302SOL    HW1  905   1.433   0.507   2.804
  302SOL    HW2  906   1.531   0.589   2.905
  303SOL     OW  907   1.880   0.766   2.216
  303SOL    HW1  908   1.917   0.728   2.300
  303SOL    HW2  909   1.820   0.699   2.172
  304SOL     OW  910   0.483   1.388   2.071
  304SOL    HW1  911   0.397   1.367   2.117
  304SOL    HW2  912   0.469   1.387   1.972
  305SOL     OW  913   1.715   1.293   2.577
  305SOL    HW1  914   1.806   1.307   2.538
  305SOL    HW2  915   1.661   1.376   2.567
  306SOL     OW  916   1.376   0.584   1.945
  306SOL    HW1  917   1.310   0.540   2.005
  306SOL    HW2  918   1.469   0.555   1.969
  307SOL     OW  919   0.557   0.261   2.172
  307SOL    HW1  920   0.576   0.205   2.091
  307SOL    HW2  921   0.524   0.351   2.143
  308SOL     OW  922   1.747   1.276   3.429
  308SOL    HW1  923   1.822   1.212   3.446
  308SOL    HW2  924   1.781   1.370   3.436
  309SOL     OW  925   1.051   1.341   3.224
  309SOL    HW1  926   0.959   1.313   3.252
  309SOL    HW2  927   1.118   1.304   3.289
  310SOL     OW  928   1.608   1.663   3.517
  310SOL    HW1  929   1.596   1.681   3.420
  310SOL    HW2  930   1.690   1.607   3.532
  311SOL     OW  931   1.058   1.172   2.992
  311SOL    HW1  932   1.063   1.237   3.067
  311SOL    HW2  933   1.042   1.221   2.906
  312SOL     OW  934   1.632   1.088   2.956
  312SOL    HW1  935   1.630   1.169   3.016
  312SOL    HW2  936   1.563   1.099   2.884
  313SOL     OW  937   0.939   0.165   3.226
  313SOL    HW1  938   0.961   0.092   3.162
  313SOL    HW2  939   1.010   0.171   3.296
  314SOL     OW  940   0.952   1.105   3.579
  314SOL    HW1  941   0.855   1.102   3.600
  314SOL    HW2  942   0.972   1.042   3.503
  315SOL     OW  943   0.726   1.062   2.271
  315SOL    HW1  944   0.722   1.040   2.369
  315SOL    HW2  945   0.803   1.015   2.229
  316SOL     OW  946   0.406   0.820   3.119
  316SOL    HW1  947   0.488   0.821   3.176
  316SOL    HW2  948   0.363   0.730   3.123
  317SOL     OW  949   1.274   0.398   3.154
  317SOL    HW1  950   1.304   0.480   3.202
  317SOL    HW2  951   1.187   0.416   3.108
  318SOL     OW  952   0.085   1.558   3.206
  318SOL    HW1  953   0.039   1.634   3.160
  318SOL    HW2  954   0.182   1.580   3.219
  319SOL     OW  955   0.405   1.159   2.349
  319SOL    HW1  956   0.371   1.216   2.275
  319SOL    HW2  957   0.374   1.065   2.335
  320SOL     OW  958   0.579   0.530   2.719
  320SOL    HW1  959   0.570   0.605   2.653
  320SOL    HW2  960   0.651   0.551   2.785
  321SOL     OW  961   1.255   1.358   2.229
  321SOL    HW1  962   1.313   1.422   2.278
  321SOL    HW2  963   1.159   1.382   2.243
  322SOL     OW  964   1.316   1.448   3.011
  322SOL    HW1  965   1.375   1.470   3.088
  322SOL    HW2  966   1.254   1.373   3.036
  323SOL     OW  967   1.619   0.644   2.372
  323SOL    HW1  968   1.540   0.690   2.413
  323SOL    HW2  969   1.629   0.674   2.277
  324SOL     OW  970   0.363   1.558   3.126
  324SOL    HW1  971   0.367   1.498   3.046
  324SOL    HW2  972   0.454   1.565   3.167
  325SOL     OW  973   0.406   0.709   3.447
  325SOL    HW1  974   0.466   0.772   3.398
  325SOL    HW2  975   0.461   0.636   3.488
  326SOL     OW  976   1.626   0.819   3.537
  326SOL    HW1  977   1.528   0.834   3.528
  326SOL    HW2  978   1.673   0.862   3.459
  327SOL     OW  979   1.007   0.144   3.627
  327SOL    HW1  980   1.071   0.197   3.572
  327SOL    HW2  981   0.979   0.062   3.578
  328SOL     OW  982   0.465   0.000   3.604
  328SOL    HW1  983   0.475   5.998   3.505
  328SOL    HW2  984   0.404   0.075   3.630
  329SOL     OW  985   0.560   0.855   2.882
  329SOL    HW1  986   0.613   0.940   2.892
  329SOL    HW2  987   0.511   0.837   2.968
  330SOL     OW  988   1.332   0.841   2.920
  330SOL    HW1  989   1.247   0.853   2.869
  330SOL    HW2  990   1.375   0.755   2.893
  331SOL     OW  991   1.211   0.479   2.124
  331SOL    HW1  992   1.237   0.419   2.200
  331SOL    HW2  993   1.163   0.559   2.159
  332SOL     OW  994   0.311   0.198   3.144
  332SOL    HW1  995   0.328   0.195   3.243
  332SOL    HW2  996   0.270   0.112   3.115
  333SOL     OW  997   0.042   1.299   3.159
  333SOL    HW1  998   0.097   1.247   3.224
  333SOL    HW2  999   0.053   1.397   3.176
  334SOL     OW 1000   0.752   0.643   2.915
  334SOL    HW1 1001   0.835   0.617   2.865
  334SOL    HW2 1002   0.721   0.732   2.883
  335SOL     OW 1003   1.781   0.965   3.695
  335SOL    HW1 1004   1.734   0.896   3.639
  335SOL    HW2 1005   1.733   0.976   3.782
  336SOL     OW 1006   0.310   0.052   2.475
  336SOL    HW1 1007   0.302   0.140   2.521
  336SOL    HW2 1008   0.224   0.002   2.482
  337SOL     OW 1009   1.567   0.395   2.249
  337SOL    HW1 1010   1.625   0.319   2.278
  337SOL    HW2 1011   1.570   0.467   2.319
  338SOL     OW 1012   1.014   0.759   2.825
  338SOL    HW1 1013   1.028   0.763   2.924
  338SOL    HW2 1014   0.999   0.664   2.797
  339SOL     OW 1015   0.995   1.593   3.581
  339SOL    HW1 1016   0.952   1.625   3.496
  339SOL    HW2 1017   1.020   1.497   3.572
  340SOL     OW 1018   1.844   1.525   3.490
  340SOL    HW1 1019   1.871   1.561   3.400
  340SOL    HW2 1020   1.922   1.532   3.552
  341SOL     OW 1021   0.357   0.943   3.650
  341SOL    HW1 1022   0.422   0.952   3.725
  341SOL    HW2 1023   0.388   0.870   3.589
  342SOL     OW 1024   1.477   0.319   2.012
  342SOL    HW1 1025   1.427   0.233   2.012
  342SOL    HW2 1026   1.497   0.347   2.106
  343SOL     OW 1027   1.295   0.850   1.911
  343SOL    HW1 1028   1.309   0.751   1.908
  343SOL    HW2 1029   1.324   0.890   1.824
  344SOL     OW 1030   1.058   1.355   2.774
  344SOL    HW1 1031   1.043   1.282   2.708
  344SOL    HW2 1032   1.109   1.429   2.731
  345SOL     OW 1033   0.296   0.784   2.808
  345SOL    HW1 1034   0.389   0.816   2.787
  345SOL    HW2 1035   0.300   0.690   2.843
  346SOL     OW 1036   0.353   0.512   2.856
  346SOL    HW1 1037   0.315   0.420   2.863
  346SOL    HW2 1038   0.430   0.511   2.792
  347SOL     OW 1039   1.187   0.369   3.559
  347SOL    HW1 1040   1.111   0.422   3.596
  347SOL    HW2 1041   1.264   0.430   3.539
  348SOL     OW 1042   1.167   0.198   3.368
  348SOL    HW1 1043   1.181   0.266   3.440
  348SOL    HW2 1044   1.177   0.242   3.279
  349SOL     OW 1045   5.973   1.320   2.058
  349SOL    HW1 1046   5.876   1.314   2.034
  349SOL    HW2 1047   0.003   1.234   2.098
  350SOL     OW 1048   0.097   1.791   2.824
  350SOL    HW1 1049   0.050   1.721   2.771
  350SOL    HW2 1050   0.186   1.809   2.783
  351SOL     OW 1051   0.494   1.604   2.740
  351SOL    HW1 1052   0.572   1.653   2.778
  351SOL    HW2 1053   0.526   1.522   2.693
  352SOL     OW 1054   0.991   0.769   3.084
  352SOL    HW1 1055   1.039   0.764   3.171
  352SOL    HW2 1056   0.902   0.724   3.092
  353SOL     OW 1057   0.018   0.543   3.021
  353SOL    HW1 1058   0.069   0.475   2.968
  353SOL    HW2 1059   0.024   0.521   3.118
  354SOL     OW 1060   0.221   0.504   3.595
  354SOL    HW1 1061   0.277   0.456   3.527
  354SOL    HW2 1062   0.171   0.578   3.550
  355SOL     OW 1063   1.374   0.926   3.512
  355SOL    HW1 1064   1.408   1.020   3.516
  355SOL    HW2 1065   1.360   0.898   3.417
  356SOL     OW 1066   0.838   0.555   2.177
  356SOL    HW1 1067   0.829   0.478   2.114
  356SOL    HW2 1068   0.756   0.612   2.174
  357SOL     OW 1069   1.621   0.550   3.050
  357SOL    HW1 1070   1.615   0.497   3.135
  357SOL    HW2 1071   1.715   0.549   3.017
  358SOL     OW 1072   0.284   1.572   3.629
  358SOL    HW1 1073   0.222   1.630   3.682
  358SOL    HW2 1074   0.262   1.476   3.645
  359SOL     OW 1075   0.703   0.473   3.121
  359SOL    HW1 1076   0.649   0.392   3.101
  359SOL    HW2 1077   0.708   0.531   3.040
  360SOL     OW 1078   0.911   1.661   3.346
  360SOL    HW1 1079   0.916   1.610   3.260
  360SOL    HW2 1080   0.894   1.758   3.327
  361SOL     OW 1081   0.487   0.486   2.064
  361SOL    HW1 1082   0.552   0.556   2.093
  361SOL    HW2 1083   0.402   0.530   2.034
  362SOL     OW 1084   0.172   1.142   3.330
  362SOL    HW1 1085   0.125   1.120   3.415
  362SOL    HW2 1086   0.160   1.067   3.265
  363SOL     OW 1087   1.301   1.055   3.093
  363SOL    HW1 1088   1.339   0.995   3.023
  363SOL    HW2 1089   1.205   1.073   3.074
  364SOL     OW 1090   1.322   0.889   2.173
  364SOL    HW1 1091   1.242   0.850   2.219
  364SOL    HW2 1092   1.316   0.868   2.075
  365SOL     OW 1093   1.807   1.696   3.029
  365SOL    HW1 1094   1.868   1.724   2.956
  365SOL    HW2 1095   1.755   1.615   3.001
  366SOL     OW 1096   1.225   1.711   3.031
  366SOL    HW1 1097   1.287   1.775   2.985
  366SOL    HW2 1098   1.253   1.617   3.012
  367SOL     OW 1099   0.088   1.273   2.884
  367SOL    HW1 1100   0.086   1.260   2.983
  367SOL    HW2 1101   0.009   1.228   2.843
  368SOL     OW 1102   0.704   1.667   3.608
  368SOL    HW1 1103   0.607   1.689   3.596
  368SOL    HW2 1104   0.753   1.687   3.523
  369SOL     OW 1105   1.649   0.133   2.344
  369SOL    HW1 1106   1.747   0.132   2.328
  369SOL    HW2 1107   1.630   0.098   2.436
  370SOL     OW 1108   1.373   1.563   2.339
  370SOL    HW1 1109   1.445   1.579   2.271
  370SOL    HW2 1110   1.333   1.650   2.367
  371SOL     OW 1111   0.125   1.795   3.704
  371SOL    HW1 1112   0.055   1.729   3.730
  371SOL    HW2 1113   0.170   1.831   3.786
  372SOL     OW 1114   1.267   0.920   2.510
  372SOL    HW1 1115   1.337   0.853   2.535
  372SOL    HW2 1116   1.311   1.005   2.480
  373SOL     OW 1117   0.778   1.241   3.276
  373SOL    HW1 1118   0.765   1.301   3.354
  373SOL    HW2 1119   0.697   1.244   3.217
  374SOL     OW 1120   0.641   1.609   2.030
  374SOL    HW1 1121   0.666   1.624   1.934
  374SOL    HW2 1122   0.598   1.519   2.039
  375SOL     OW 1123   1.629   1.730   3.244
  375SOL    HW1 1124   1.693   1.730   3.167
  375SOL    HW2 1125   1.612   1.825   3.273
  376SOL     OW 1126   1.877   0.138   2.816
  376SOL    HW1 1127   1.890   0.063   2.751
  376SOL    HW2 1128   1.786   0.178   2.803
  377SOL     OW 1129   0.265   0.286   2.587
  377SOL    HW1 1130   0.184   0.313   2.535
  377SOL    HW2 1131   0.264   0.330   2.677
  378SOL     OW 1132   1.221   1.607   1.874
  378SOL    HW1 1133   1.193   1.522   1.919
  378SOL    HW2 1134   1.166   1.621   1.792
  379SOL     OW 1135   0.829   0.994   3.206
  379SOL    HW1 1136   0.894   0.990   3.131
  379SOL    HW2 1137   0.813   1.090   3.232
  380SOL     OW 1138   0.914   0.917   2.143
  380SOL    HW1 1139   0.988   0.958   2.090
  380SOL    HW2 1140   0.931   0.819   2.152
  381SOL     OW 1141   1.524   1.631   1.932
  381SOL    HW1 1142   1.425   1.632   1.949
  381SOL    HW2 1143   1.542   1.648   1.835
  382SOL     OW 1144   0.386   1.290   3.365
  382SOL    HW1 1145   0.390   1.340   3.279
  382SOL    HW2 1146   0.312   1.223   3.361
  383SOL     OW 1147   1.621   1.291   3.166
  383SOL    HW1 1148   1.680   1.272   3.245
  383SOL    HW2 1149   1.553   1.360   3.191
  384SOL     OW 1150   1.002   1.150   2.608
  384SOL    HW1 1151   0.945   1.076   2.644
  384SOL    HW2 1152   1.056   1.116   2.531
  385SOL     OW 1153   1.059   0.186   2.828
  385SOL    HW1 1154   1.057   0.142   2.738
  385SOL    HW2 1155   0.981   0.154   2.882
  386SOL     OW 1156   0.600   1.481   2.310
  386SOL    HW1 1157   0.625   1.402   2.255
  386SOL    HW2 1158   0.554   1.549   2.252
  387SOL     OW 1159   1.725   0.389   3.259
  387SOL    HW1 1160   1.791   0.463   3.261
  387SOL    HW2 1161   1.758   0.316   3.199
  388SOL     OW 1162   0.231   1.365   2.171
  388SOL    HW1 1163   0.135   1.353   2.146
  388SOL    HW2 1164   0.238   1.409   2.260
  389SOL     OW 1165   0.116   1.059   3.598
  389SOL    HW1 1166   0.047   0.989   3.617
  389SOL    HW2 1167   0.207   1.020   3.611
  390SOL     OW 1168   0.693   0.205   3.321
  390SOL    HW1 1169   0.779   0.189   3.274
  390SOL    HW2 1170   0.710   0.224   3.418
  391SOL     OW 1171   0.031   0.343   1.898
  391SOL    HW1 1172   5.943   0.382   1.926
  391SOL    HW2 1173   0.086   0.414   1.854
  392SOL     OW 1174   1.421   0.852   3.243
  392SOL    HW1 1175   1.359   0.919   3.202
  392SOL    HW2 1176   1.511   0.859   3.201
  393SOL     OW 1177   0.060   0.182   2.209
  393SOL    HW1 1178   0.072   0.280   2.226
  393SOL    HW2 1179   0.138   0.147   2.156
  394SOL     OW 1180   1.189   1.349   1.973
  394SOL    HW1 1181   1.136   1.265   1.967
  394SOL    HW2 1182   1.226   1.360   2.065
  395SOL     OW 1183   0.621   0.829   3.288
  395SOL    HW1 1184   0.668   0.914   3.263
  395SOL    HW2 1185   0.689   0.757   3.305
  396SOL     OW 1186   1.479   1.790   2.864
  396SOL    HW1 1187   1.475   1.849   2.783
  396SOL    HW2 1188   1.574   1.764   2.882
  397SOL     OW 1189   0.706   0.558   3.568
  397SOL    HW1 1190   0.737   0.623   3.637
  397SOL    HW2 1191   0.731   0.465   3.595
  398SOL     OW 1192   1.484   1.191   3.485
  398SOL    HW1 1193   1.452   1.208   3.578
  398SOL    HW2 1194   1.572   1.238   3.471
  399SOL     OW 1195   0.386   1.695   3.419
  399SOL    HW1 1196   0.303   1.746   3.394
  399SOL    HW2 1197   0.364   1.630   3.492
  400SOL     OW 1198   1.662   0.852   3.100
  400SOL    HW1 1199   1.650   0.770   3.044
  400SOL    HW2 1200   1.662   0.933   3.042
  401SOL     OW 1201   1.228   0.319   2.337
  401SOL    HW1 1202   1.272   0.229   2.338
  401SOL    HW2 1203   1.249   0.368   2.421
  402SOL     OW 1204   0.545   0.733   2.542
  402SOL    HW1 1205   0.589   0.822   2.529
  402SOL    HW2 1206   0.484   0.714   2.466
  403SOL     OW 1207   1.740   0.384   3.530
  403SOL    HW1 1208   1.734   0.389   3.430
  403SOL    HW2 1209   1.672   0.320   3.565
  404SOL     OW 1210   1.758   0.952   3.334
  404SOL    HW1 1211   1.753   1.051   3.315
  404SOL    HW2 1212   1.733   0.902   3.251
  405SOL     OW 1213   0.847   1.407   1.874
  405SOL    HW1 1214   0.845   1.383   1.971
  405SOL    HW2 1215   0.892   1.496   1.863
  406SOL     OW 1216   0.673   1.800   2.813
  406SOL    HW1 1217   0.628   1.889   2.807
  406SOL    HW2 1218   0.769   1.810   2.787
  407SOL     OW 1219   0.864   0.967   2.749
  407SOL    HW1 1220   0.929   0.896   2.776
  407SOL    HW2 1221   0.842   1.024   2.828
  408SOL     OW 1222   1.082   1.029   1.945
  408SOL    HW1 1223   1.045   1.053   1.856
  408SOL    HW2 1224   1.152   0.958   1.934
  409SOL     OW 1225   1.822   1.559   2.724
  409SOL    HW1 1226   1.742   1.548   2.666
  409SOL    HW2 1227   1.812   1.504   2.807
  410SOL     OW 1228   0.234   1.313   3.727
  410SOL    HW1 1229   0.177   1.248   3.677
  410SOL    HW2 1230   0.195   1.328   3.818
  411SOL     OW 1231   0.104   1.213   2.506
  411SOL    HW1 1232   0.082   1.231   2.602
  411SOL    HW2 1233   0.178   1.273   2.477
  412SOL     OW 1234   0.719   1.390   3.479
  412SOL    HW1 1235   0.628   1.363   3.511
  412SOL    HW2 1236   0.756   1.462   3.538
  413SOL     OW 1237   1.816   0.198   3.094
  413SOL    HW1 1238   1.811   0.109   3.140
  413SOL    HW2 1239   1.844   0.185   2.999
  414SOL     OW 1240   0.399   0.416   2.374
  414SOL    HW1 1241   0.452   0.350   2.321
  414SOL    HW2 1242   0.359   0.369   2.453
  415SOL     OW 1243   1.686   1.462   2.958
  415SOL    HW1 1244   1.599   1.455   2.909
  415SOL    HW2 1245   1.686   1.396   3.033
  416SOL     OW 1246   0.307   0.570   3.120
  416SOL    HW1 1247   0.353   0.507   3.182
  416SOL    HW2 1248   0.329   0.546   3.026
  417SOL     OW 1249   0.813   1.578   2.554
  417SOL    HW1 1250   0.843   1.571   2.459
  417SOL    HW2 1251   0.718   1.549   2.562
  418SOL     OW 1252   1.482   0.265   3.009
  418SOL    HW1 1253   1.496   0.183   3.065
  418SOL    HW2 1254   1.464   0.343   3.069
  419SOL     OW 1255   0.997   5.954   3.058
  419SOL    HW1 1256   0.928   5.948   2.986
  419SOL    HW2 1257   1.087   5.970   3.017
  420SOL     OW 1258   0.828   1.289   2.198
  420SOL    HW1 1259   0.777   1.205   2.213
  420SOL    HW2 1260   0.873   1.316   2.284
  421SOL     OW 1261   0.649   1.563   3.145
  421SOL    HW1 1262   0.635   1.645   3.201
  421SOL    HW2 1263   0.745   1.555   3.120
  422SOL     OW 1264   1.360   0.069   2.006
  422SOL    HW1 1265   1.398   0.008   1.937
  422SOL    HW2 1266   1.292   0.020   2.060
  423SOL     OW 1267   1.284   0.472   2.558
  423SOL    HW1 1268   1.222   0.550   2.559
  423SOL    HW2 1269   1.299   0.440   2.652
  424SOL     OW 1270   1.636   0.249   2.777
  424SOL    HW1 1271   1.587   0.257   2.864
  424SOL    HW2 1272   1.599   0.316   2.712
  425SOL     OW 1273   0.080   1.106   2.171
  425SOL    HW1 1274   0.167   1.062   2.146
  425SOL    HW2 1275   0.049   1.072   2.259
  426SOL     OW 1276   0.873   1.634   2.157
  426SOL    HW1 1277   0.785   1.619   2.112
  426SOL    HW2 1278   0.868   1.714   2.216
  427SOL     OW 1279   0.269   0.647   3.867
  427SOL    HW1 1280   0.191   0.662   3.927
  427SOL    HW2 1281   0.238   0.614   3.778
  428SOL     OW 1282   0.217   0.298   4.725
  428SOL    HW1 1283   0.249   0.234   4.795
  428SOL    HW2 1284   0.126   0.271   4.694
  429SOL     OW 1285   0.017   0.361   4.357
  429SOL    HW1 1286   5.967   0.377   4.442
  429SOL    HW2 1287   5.963   0.304   4.296
  430SOL     OW 1288   0.573   1.234   4.965
  430SOL    HW1 1289   0.479   1.207   4.941
  430SOL    HW2 1290   0.583   1.333   4.953
  431SOL     OW 1291   1.564   1.519   4.438
  431SOL    HW1 1292   1.523   1.483   4.522
  431SOL    HW2 1293   1.495   1.525   4.366
  432SOL     OW 1294   1.122   0.690   4.373
  432SOL    HW1 1295   1.162   0.780   4.389
  432SOL    HW2 1296   1.047   0.675   4.437
  433SOL     OW 1297   1.718   0.576   3.977
  433SOL    HW1 1298   1.731   0.576   3.877
  433SOL    HW2 1299   1.658   0.500   4.002
  434SOL     OW 1300   0.767   1.162   4.774
  434SOL    HW1 1301   0.689   1.176   4.836
  434SOL    HW2 1302   0.793   1.250   4.735
  435SOL     OW 1303   0.830   0.807   5.532
  435SOL    HW1 1304   0.808   0.868   5.608
  435SOL    HW2 1305   0.868   0.860   5.457
  436SOL     OW 1306   0.668   0.989   4.425
  436SOL    HW1 1307   0.741   0.982   4.494
  436SOL    HW2 1308   0.611   1.069   4.446
  437SOL     OW 1309   0.706   1.160   5.567
  437SOL    HW1 1310   0.764   1.242   5.573
  437SOL    HW2 1311   0.615   1.186   5.533
  438SOL     OW 1312   0.359   1.421   4.747
  438SOL    HW1 1313   0.268   1.395   4.714
  438SOL    HW2 1314   0.398   1.490   4.686
  439SOL     OW 1315   1.487   1.514   5.086
  439SOL    HW1 1316   1.546   1.595   5.091
  439SOL    HW2 1317   1.407   1.528   5.145
  440SOL     OW 1318   0.435   0.395   5.211
  440SOL    HW1 1319   0.509   0.332   5.187
  440SOL    HW2 1320   0.351   0.343   5.225
  441SOL     OW 1321   1.576   0.441   4.458
  441SOL    HW1 1322   1.487   0.470   4.424
  441SOL    HW2 1323   1.624   0.520   4.497
  442SOL     OW 1324   0.281   1.693   4.216
  442SOL    HW1 1325   0.297   1.783   4.257
  442SOL    HW2 1326   0.329   1.688   4.129
  443SOL     OW 1327   1.127   1.355   5.434
  443SOL    HW1 1328   1.194   1.334   5.505
  443SOL    HW2 1329   1.074   1.272   5.414
  444SOL     OW 1330   0.237   1.447   4.312
  444SOL    HW1 1331   0.269   1.540   4.292
  444SOL    HW2 1332   0.139   1.447   4.328
  445SOL     OW 1333   0.263   1.081   4.628
  445SOL    HW1 1334   0.256   0.988   4.663
  445SOL    HW2 1335   0.213   1.143   4.688
  446SOL     OW 1336   0.633   1.769   5.183
  446SOL    HW1 1337   0.542   1.738   5.213
  446SOL    HW2 1338   0.641   1.867   5.198
  447SOL     OW 1339   0.574   0.966   3.878
  447SOL    HW1 1340   0.610   1.028   3.807
  447SOL    HW2 1341   0.618   0.986   3.965
  448SOL     OW 1342   1.671   0.096   5.213
  448SOL    HW1 1343   1.615   0.143   5.145
  448SOL    HW2 1344   1.666   0.145   5.300
  449SOL     OW 1345   0.099   0.615   4.294
  449SOL    HW1 1346   0.066   0.521   4.304
  449SOL    HW2 1347   0.033   0.678   4.334
  450SOL     OW 1348   1.870   1.738   4.065
  450SOL    HW1 1349   1.924   1.713   4.146
  450SOL    HW2 1350   1.878   1.836   4.049
  451SOL     OW 1351   0.045   1.579   3.888
  451SOL    HW1 1352   0.015   1.484   3.882
  451SOL    HW2 1353   0.017   1.618   3.976
  452SOL     OW 1354   1.672   0.929   4.361
  452SOL    HW1 1355   1.747   0.873   4.326
  452SOL    HW2 1356   1.652   1.002   4.296
  453SOL     OW 1357   1.655   1.159   4.201
  453SOL    HW1 1358   1.740   1.139   4.153
  453SOL    HW2 1359   1.676   1.195   4.292
  454SOL     OW 1360   0.099   0.772   5.421
  454SOL    HW1 1361   0.185   0.772   5.470
  454SOL    HW2 1362   0.112   0.810   5.330
  455SOL     OW 1363   0.587   1.393   4.448
  455SOL    HW1 1364   0.539   1.306   4.459
  455SOL    HW2 1365   0.581   1.423   4.353
  456SOL     OW 1366   1.286   1.231   5.169
  456SOL    HW1 1367   1.302   1.164   5.096
  456SOL    HW2 1368   1.354   1.218   5.241
  457SOL     OW 1369   0.788   0.020   4.310
  457SOL    HW1 1370   0.826   0.110   4.288
  457SOL    HW2 1371   0.691   0.018   4.285
  458SOL     OW 1372   0.218   0.986   4.939
  458SOL    HW1 1373   0.301   0.932   4.925
  458SOL    HW2 1374   0.140   0.940   4.896
  459SOL     OW 1375   1.572   0.962   3.912
  459SOL    HW1 1376   1.492   0.920   3.953
  459SOL    HW2 1377   1.606   1.034   3.972
  460SOL     OW 1378   1.208   1.808   5.347
  460SOL    HW1 1379   1.173   1.869   5.276
  460SOL    HW2 1380   1.226   1.718   5.308
  461SOL     OW 1381   0.292   0.211   5.549
  461SOL    HW1 1382   0.370   0.267   5.520
  461SOL    HW2 1383   0.209   0.266   5.550
  462SOL     OW 1384   1.471   1.411   4.656
  462SOL    HW1 1385   1.405   1.428   4.729
  462SOL    HW2 1386   1.480   1.313   4.640
  463SOL     OW 1387   1.650   1.752   4.314
  463SOL    HW1 1388   1.609   1.732   4.225
  463SOL    HW2 1389   1.644   1.671   4.372
  464SOL     OW 1390   0.618   0.714   4.009
  464SOL    HW1 1391   0.618   0.798   3.955
  464SOL    HW2 1392   0.550   0.721   4.081
  465SOL     OW 1393   1.316   0.365   4.674
  465SOL    HW1 1394   1.219   0.343   4.677
  465SOL    HW2 1395   1.366   0.308   4.740
  466SOL     OW 1396   1.590   1.673   4.053
  466SOL    HW1 1397   1.688   1.693   4.066
  466SOL    HW2 1398   1.572   1.659   3.956
  467SOL     OW 1399   0.790   0.625   5.187
  467SOL    HW1 1400   0.755   0.593   5.275
  467SOL    HW2 1401   0.757   0.565   5.114
  468SOL     OW 1402   1.400   0.514   5.414
  468SOL    HW1 1403   1.393   0.550   5.507
  468SOL    HW2 1404   1.466   0.439   5.412
  469SOL     OW 1405   0.976   0.891   5.286
  469SOL    HW1 1406   1.032   0.813   5.256
  469SOL    HW2 1407   0.922   0.924   5.209
  470SOL     OW 1408   1.004   0.414   4.944
  470SOL    HW1 1409   0.922   0.435   4.996
  470SOL    HW2 1410   0.987   0.334   4.885
  471SOL     OW 1411   1.062   0.691   4.092
  471SOL    HW1 1412   1.079   0.699   4.190
  471SOL    HW2 1413   0.979   0.639   4.076
  472SOL     OW 1414   0.040   0.811   4.509
  472SOL    HW1 1415   0.130   0.782   4.540
  472SOL    HW2 1416   0.048   0.898   4.460
  473SOL     OW 1417   0.135   1.849   5.307
  473SOL    HW1 1418   0.152   1.833   5.405
  473SOL    HW2 1419   0.038   1.835   5.288
  474SOL     OW 1420   0.857   0.385   3.846
  474SOL    HW1 1421   0.934   0.406   3.786
  474SOL    HW2 1422   0.877   0.305   3.901
  475SOL     OW 1423   1.714   0.611   5.555
  475SOL    HW1 1424   1.674   0.692   5.512
  475SOL    HW2 1425   1.727   0.540   5.487
  476SOL     OW 1426   1.383   1.163   4.280
  476SOL    HW1 1427   1.465   1.150   4.224
  476SOL    HW2 1428   1.313   1.210   4.226
  477SOL     OW 1429   0.534   0.219   4.626
  477SOL    HW1 1430   0.549   0.219   4.725
  477SOL    HW2 1431   0.550   0.310   4.590
  478SOL     OW 1432   1.029   1.482   4.169
  478SOL    HW1 1433   0.960   1.533   4.117
  478SOL    HW2 1434   1.055   1.535   4.250
  479SOL     OW 1435   0.347   1.815   4.598
  479SOL    HW1 1436   0.400   1.730   4.596
  479SOL    HW2 1437   0.406   1.891   4.624
  480SOL     OW 1438   1.804   1.045   4.622
  480SOL    HW1 1439   1.774   1.099   4.543
  480SOL    HW2 1440   1.737   1.053   4.695
  481SOL     OW 1441   1.254   1.560   5.232
  481SOL    HW1 1442   1.272   1.470   5.271
  481SOL    HW2 1443   1.157   1.567   5.209
  482SOL     OW 1444   0.314   0.956   3.986
  482SOL    HW1 1445   0.411   0.970   3.967
  482SOL    HW2 1446   0.283   0.873   3.939
  483SOL     OW 1447   1.460   0.752   4.462
  483SOL    HW1 1448   1.456   0.691   4.541
  483SOL    HW2 1449   1.551   0.791   4.455
  484SOL     OW 1450   0.471   1.269   5.494
  484SOL    HW1 1451   0.449   1.285   5.398
  484SOL    HW2 1452   0.387   1.269   5.548
  485SOL     OW 1453   1.177   1.754   3.951
  485SOL    HW1 1454   1.089   1.726   3.987
  485SOL    HW2 1455   1.192   1.712   3.861
  486SOL     OW 1456   0.200   0.282   5.249
  486SOL    HW1 1457   0.111   0.315   5.217
  486SOL    HW2 1458   0.189   0.194   5.295
  487SOL     OW 1459   1.587   1.368   3.858
  487SOL    HW1 1460   1.578   1.463   3.830
  487SOL    HW2 1461   1.523   1.311   3.806
  488SOL     OW 1462   0.451   1.754   4.013
  488SOL    HW1 1463   0.499   1.817   4.074
  488SOL    HW2 1464   0.518   1.700   3.962
  489SOL     OW 1465   1.369   0.108   4.135
  489SOL    HW1 1466   1.375   0.110   4.035
  489SOL    HW2 1467   1.458   0.131   4.174
  490SOL     OW 1468   0.236   1.787   4.930
  490SOL    HW1 1469   0.294   1.708   4.950
  490SOL    HW2 1470   0.197   1.778   4.838
  491SOL     OW 1471   0.938   1.716   4.618
  491SOL    HW1 1472   0.991   1.649   4.671
  491SOL    HW2 1473   0.886   1.668   4.547
  492SOL     OW 1474   0.386   0.680   4.191
  492SOL    HW1 1475   0.396   0.582   4.208
  492SOL    HW2 1476   0.289   0.706   4.200
  493SOL     OW 1477   1.526   0.233   5.470
  493SOL    HW1 1478   1.502   0.274   5.558
  493SOL    HW2 1479   1.483   0.143   5.463
  494SOL     OW 1480   0.595   0.112   3.805
  494SOL    HW1 1481   0.694   0.093   3.805
  494SOL    HW2 1482   0.554   0.075   3.721
  495SOL     OW 1483   0.754   0.245   5.462
  495SOL    HW1 1484   0.837   0.196   5.491
  495SOL    HW2 1485   0.712   0.288   5.542
  496SOL     OW 1486   0.919   1.546   4.924
  496SOL    HW1 1487   0.877   1.503   4.844
  496SOL    HW2 1488   0.988   1.485   4.962
  497SOL     OW 1489   1.344   0.597   5.164
  497SOL    HW1 1490   1.371   0.576   5.258
  497SOL    HW2 1491   1.376   0.688   5.140
  498SOL     OW 1492   0.774   1.401   4.646
  498SOL    HW1 1493   0.862   1.426   4.605
  498SOL    HW2 1494   0.707   1.381   4.574
  499SOL     OW 1495   0.936   0.508   4.626
  499SOL    HW1 1496   0.887   0.482   4.543
  499SOL    HW2 1497   0.963   0.426   4.676
  500SOL     OW 1498   0.547   0.080   4.214
  500SOL    HW1 1499   0.460   0.066   4.261
  500SOL    HW2 1500   0.539   0.159   4.153
  501SOL     OW 1501   1.403   1.198   3.733
  501SOL    HW1 1502   1.434   1.108   3.763
  501SOL    HW2 1503   1.337   1.234   3.798
  502SOL     OW 1504   0.284   0.049   3.924
  502SOL    HW1 1505   0.338   0.091   3.852
  502SOL    HW2 1506   0.337   5.975   3.966
  503SOL     OW 1507   0.962   0.262   4.204
  503SOL    HW1 1508   0.912   0.234   4.122
  503SOL    HW2 1509   1.056   0.285   4.179
  504SOL     OW 1510   1.089   0.667   5.172
  504SOL    HW1 1511   1.019   0.596   5.172
  504SOL    HW2 1512   1.180   0.626   5.163
  505SOL     OW 1513   1.202   1.555   4.518
  505SOL    HW1 1514   1.229   1.595   4.430
  505SOL    HW2 1515   1.281   1.557   4.580
  506SOL     OW 1516   0.464   1.162   4.470
  506SOL    HW1 1517   0.385   1.133   4.525
  506SOL    HW2 1518   0.438   1.165   4.374
  507SOL     OW 1519   1.298   1.794   4.300
  507SOL    HW1 1520   1.326   1.863   4.233
  507SOL    HW2 1521   1.245   1.837   4.372
  508SOL     OW 1522   1.031   0.549   3.678
  508SOL    HW1 1523   0.979   0.634   3.680
  508SOL    HW2 1524   1.088   0.543   3.760
  509SOL     OW 1525   0.080   0.569   5.149
  509SOL    HW1 1526   0.158   0.546   5.091
  509SOL    HW2 1527   0.087   0.664   5.179
  510SOL     OW 1528   0.542   0.272   4.907
  510SOL    HW1 1529   0.599   0.215   4.965
  510SOL    HW2 1530   0.446   0.253   4.926
  511SOL     OW 1531   0.852   0.419   4.391
  511SOL    HW1 1532   0.790   0.476   4.336
  511SOL    HW2 1533   0.907   0.361   4.331
  512SOL     OW 1534   0.991   0.027   4.484
  512SOL    HW1 1535   0.922   0.031   4.412
  512SOL    HW2 1536   0.971   5.950   4.545
  513SOL     OW 1537   1.453   1.129   4.611
  513SOL    HW1 1538   1.363   1.089   4.627
  513SOL    HW2 1539   1.480   1.115   4.515
  514SOL     OW 1540   1.476   0.587   4.678
  514SOL    HW1 1541   1.434   0.497   4.671
  514SOL    HW2 1542   1.536   0.590   4.759
  515SOL     OW 1543   1.877   0.764   4.079
  515SOL    HW1 1544   1.918   0.725   4.161
  515SOL    HW2 1545   1.813   0.698   4.040
  516SOL     OW 1546   0.485   1.396   3.930
  516SOL    HW1 1547   0.398   1.372   3.974
  516SOL    HW2 1548   0.476   1.387   3.831
  517SOL     OW 1549   1.720   1.292   4.438
  517SOL    HW1 1550   1.809   1.311   4.398
  517SOL    HW2 1551   1.661   1.373   4.429
  518SOL     OW 1552   1.374   0.584   3.806
  518SOL    HW1 1553   1.306   0.542   3.866
  518SOL    HW2 1554   1.465   0.552   3.831
  519SOL     OW 1555   0.553   0.263   4.028
  519SOL    HW1 1556   0.572   0.207   3.948
  519SOL    HW2 1557   0.520   0.353   3.999
  520SOL     OW 1558   1.749   1.254   5.279
  520SOL    HW1 1559   1.838   1.209   5.291
  520SOL    HW2 1560   1.760   1.352   5.296
  521SOL     OW 1561   1.056   1.356   5.083
  521SOL    HW1 1562   0.969   1.326   5.122
  521SOL    HW2 1563   1.131   1.310   5.131
  522SOL     OW 1564   1.601   1.674   5.381
  522SOL    HW1 1565   1.590   1.693   5.284
  522SOL    HW2 1566   1.682   1.617   5.395
  523SOL     OW 1567   1.053   1.181   4.864
  523SOL    HW1 1568   1.060   1.249   4.937
  523SOL    HW2 1569   1.033   1.226   4.777
  524SOL     OW 1570   1.636   1.091   4.821
  524SOL    HW1 1571   1.628   1.164   4.890
  524SOL    HW2 1572   1.566   1.103   4.751
  525SOL     OW 1573   0.933   0.160   5.086
  525SOL    HW1 1574   0.956   0.087   5.022
  525SOL    HW2 1575   1.004   0.168   5.155
  526SOL     OW 1576   0.974   1.107   5.454
  526SOL    HW1 1577   0.876   1.118   5.468
  526SOL    HW2 1578   0.990   1.036   5.386
  527SOL     OW 1579   0.722   1.055   4.131
  527SOL    HW1 1580   0.721   1.037   4.229
  527SOL    HW2 1581   0.803   1.013   4.089
  528SOL     OW 1582   0.410   0.813   4.966
  528SOL    HW1 1583   0.491   0.820   5.025
  528SOL    HW2 1584   0.363   0.727   4.985
  529SOL     OW 1585   1.269   0.389   5.029
  529SOL    HW1 1586   1.304   0.473   5.070
  529SOL    HW2 1587   1.185   0.408   4.978
  530SOL     OW 1588   0.083   1.557   5.068
  530SOL    HW1 1589   0.034   1.631   5.024
  530SOL    HW2 1590   0.179   1.584   5.082
  531SOL     OW 1591   0.403   1.157   4.209
  531SOL    HW1 1592   0.373   1.215   4.133
  531SOL    HW2 1593   0.373   1.063   4.192
  532SOL     OW 1594   0.580   0.537   4.581
  532SOL    HW1 1595   0.575   0.616   4.519
  532SOL    HW2 1596   0.653   0.552   4.648
  533SOL     OW 1597   1.256   1.352   4.099
  533SOL    HW1 1598   1.313   1.421   4.144
  533SOL    HW2 1599   1.159   1.373   4.116
  534SOL     OW 1600   1.318   1.455   4.874
  534SOL    HW1 1601   1.380   1.469   4.951
  534SOL    HW2 1602   1.253   1.383   4.897
  535SOL     OW 1603   1.619   0.649   4.240
  535SOL    HW1 1604   1.540   0.696   4.280
  535SOL    HW2 1605   1.628   0.674   4.144
  536SOL     OW 1606   0.370   1.557   4.992
  536SOL    HW1 1607   0.367   1.496   4.913
  536SOL    HW2 1608   0.464   1.559   5.028
  537SOL     OW 1609   0.405   0.721   5.290
  537SOL    HW1 1610   0.468   0.772   5.232
  537SOL    HW2 1611   0.457   0.667   5.357
  538SOL     OW 1612   1.626   0.821   5.406
  538SOL    HW1 1613   1.529   0.843   5.396
  538SOL    HW2 1614   1.678   0.862   5.331
  539SOL     OW 1615   1.003   0.152   5.513
  539SOL    HW1 1616   1.074   0.217   5.486
  539SOL    HW2 1617   0.999   0.077   5.446
  540SOL     OW 1618   0.470   0.007   5.454
  540SOL    HW1 1619   0.474   0.005   5.354
  540SOL    HW2 1620   0.411   0.083   5.483
  541SOL     OW 1621   0.585   0.846   4.732
  541SOL    HW1 1622   0.628   0.936   4.735
  541SOL    HW2 1623   0.521   0.836   4.807
  542SOL     OW 1624   1.328   0.839   4.764
  542SOL    HW1 1625   1.245   0.849   4.709
  542SOL    HW2 1626   1.373   0.753   4.739
  543SOL     OW 1627   1.208   0.479   3.982
  543SOL    HW1 1628   1.233   0.417   4.057
  543SOL    HW2 1629   1.160   0.559   4.019
  544SOL     OW 1630   0.305   0.202   4.987
  544SOL    HW1 1631   0.289   0.216   5.085
  544SOL    HW2 1632   0.291   0.106   4.964
  545SOL     OW 1633   0.041   1.291   5.024
  545SOL    HW1 1634   0.105   1.246   5.087
  545SOL    HW2 1635   0.050   1.390   5.033
  546SOL     OW 1636   0.759   0.647   4.782
  546SOL    HW1 1637   0.834   0.617   4.724
  546SOL    HW2 1638   0.722   0.733   4.746
  547SOL     OW 1639   1.757   0.984   5.598
  547SOL    HW1 1640   1.721   0.920   5.531
  547SOL    HW2 1641   1.695   0.990   5.676
  548SOL     OW 1642   0.312   0.055   4.337
  548SOL    HW1 1643   0.299   0.141   4.387
  548SOL    HW2 1644   0.229   5.999   4.345
  549SOL     OW 1645   1.564   0.397   4.111
  549SOL    HW1 1646   1.616   0.317   4.142
  549SOL    HW2 1647   1.565   0.467   4.183
  550SOL     OW 1648   1.035   0.782   4.685
  550SOL    HW1 1649   1.033   0.795   4.784
  550SOL    HW2 1650   1.002   0.690   4.662
  551SOL     OW 1651   0.989   1.581   5.463
  551SOL    HW1 1652   0.960   1.625   5.378
  551SOL    HW2 1653   1.043   1.499   5.441
  552SOL     OW 1654   1.840   1.526   5.355
  552SOL    HW1 1655   1.870   1.556   5.264
  552SOL    HW2 1656   1.913   1.546   5.421
  553SOL     OW 1657   0.382   0.935   5.507
  553SOL    HW1 1658   0.450   0.929   5.580
  553SOL    HW2 1659   0.405   0.872   5.434
  554SOL     OW 1660   1.481   0.321   3.872
  554SOL    HW1 1661   1.425   0.238   3.871
  554SOL    HW2 1662   1.496   0.350   3.967
  555SOL     OW 1663   1.297   0.849   3.775
  555SOL    HW1 1664   1.310   0.750   3.775
  555SOL    HW2 1665   1.324   0.886   3.686
  556SOL     OW 1666   1.055   1.360   4.630
  556SOL    HW1 1667   1.051   1.286   4.563
  556SOL    HW2 1668   1.110   1.435   4.594
  557SOL     OW 1669   0.303   0.786   4.670
  557SOL    HW1 1670   0.394   0.813   4.639
  557SOL    HW2 1671   0.305   0.690   4.697
  558SOL     OW 1672   0.355   0.516   4.718
  558SOL    HW1 1673   0.315   0.424   4.720
  558SOL    HW2 1674   0.434   0.517   4.657
  559SOL     OW 1675   1.179   0.372   5.424
  559SOL    HW1 1676   1.105   0.424   5.467
  559SOL    HW2 1677   1.258   0.432   5.409
  560SOL     OW 1678   1.159   0.193   5.234
  560SOL    HW1 1679   1.154   0.260   5.308
  560SOL    HW2 1680   1.175   0.241   5.147
  561SOL     OW 1681   5.976   1.321   3.919
  561SOL    HW1 1682   5.880   1.316   3.893
  561SOL    HW2 1683   0.004   1.234   3.959
  562SOL     OW 1684   0.097   1.784   4.688
  562SOL    HW1 1685   0.045   1.717   4.636
  562SOL    HW2 1686   0.183   1.803   4.641
  563SOL     OW 1687   0.498   1.604   4.597
  563SOL    HW1 1688   0.578   1.647   4.638
  563SOL    HW2 1689   0.526   1.521   4.549
  564SOL     OW 1690   0.978   0.786   4.947
  564SOL    HW1 1691   1.040   0.777   5.026
  564SOL    HW2 1692   0.890   0.743   4.969
  565SOL     OW 1693   0.001   0.532   4.880
  565SOL    HW1 1694   0.071   0.483   4.827
  565SOL    HW2 1695   0.027   0.531   4.977
  566SOL     OW 1696   0.214   0.502   5.441
  566SOL    HW1 1697   0.276   0.461   5.373
  566SOL    HW2 1698   0.165   0.578   5.399
  567SOL     OW 1699   1.389   0.930   5.354
  567SOL    HW1 1700   1.416   1.026   5.354
  567SOL    HW2 1701   1.384   0.897   5.259
  568SOL     OW 1702   0.838   0.565   4.038
  568SOL    HW1 1703   0.830   0.492   3.969
  568SOL    HW2 1704   0.755   0.621   4.036
  569SOL     OW 1705   1.630   0.588   4.908
  569SOL    HW1 1706   1.612   0.567   5.003
  569SOL    HW2 1707   1.726   0.570   4.887
  570SOL     OW 1708   0.295   1.572   5.488
  570SOL    HW1 1709   0.237   1.641   5.532
  570SOL    HW2 1710   0.266   1.481   5.518
  571SOL     OW 1711   0.702   0.477   4.985
  571SOL    HW1 1712   0.641   0.401   4.964
  571SOL    HW2 1713   0.712   0.535   4.904
  572SOL     OW 1714   0.923   1.660   5.202
  572SOL    HW1 1715   0.916   1.609   5.117
  572SOL    HW2 1716   0.910   1.757   5.184
  573SOL     OW 1717   0.487   0.491   3.920
  573SOL    HW1 1718   0.552   0.560   3.953
  573SOL    HW2 1719   0.402   0.536   3.892
  574SOL     OW 1720   0.185   1.146   5.194
  574SOL    HW1 1721   0.130   1.126   5.276
  574SOL    HW2 1722   0.171   1.074   5.126
  575SOL     OW 1723   1.289   1.037   4.961
  575SOL    HW1 1724   1.316   0.983   4.882
  575SOL    HW2 1725   1.194   1.066   4.951
  576SOL     OW 1726   1.325   0.885   4.035
  576SOL    HW1 1727   1.243   0.848   4.079
  576SOL    HW2 1728   1.319   0.869   3.936
  577SOL     OW 1729   1.806   1.706   4.891
  577SOL    HW1 1730   1.870   1.732   4.819
  577SOL    HW2 1731   1.757   1.623   4.864
  578SOL     OW 1732   1.223   1.716   4.890
  578SOL    HW1 1733   1.292   1.778   4.854
  578SOL    HW2 1734   1.254   1.622   4.880
  579SOL     OW 1735   0.085   1.270   4.753
  579SOL    HW1 1736   0.089   1.256   4.852
  579SOL    HW2 1737   0.004   1.225   4.716
  580SOL     OW 1738   0.705   1.661   5.479
  580SOL    HW1 1739   0.607   1.666   5.460
  580SOL    HW2 1740   0.757   1.693   5.400
  581SOL     OW 1741   1.657   0.156   4.215
  581SOL    HW1 1742   1.753   0.142   4.191
  581SOL    HW2 1743   1.636   0.109   4.300
  582SOL     OW 1744   1.375   1.563   4.203
  582SOL    HW1 1745   1.448   1.579   4.137
  582SOL    HW2 1746   1.334   1.650   4.230
  583SOL     OW 1747   0.152   1.796   5.563
  583SOL    HW1 1748   0.074   1.739   5.592
  583SOL    HW2 1749   0.200   1.829   5.644
  584SOL     OW 1750   1.272   0.925   4.371
  584SOL    HW1 1751   1.340   0.858   4.399
  584SOL    HW2 1752   1.318   1.008   4.340
  585SOL     OW 1753   0.791   1.248   5.126
  585SOL    HW1 1754   0.775   1.310   5.203
  585SOL    HW2 1755   0.708   1.240   5.070
  586SOL     OW 1756   0.644   1.611   3.892
  586SOL    HW1 1757   0.669   1.625   3.796
  586SOL    HW2 1758   0.597   1.523   3.902
  587SOL     OW 1759   1.645   1.738   5.110
  587SOL    HW1 1760   1.702   1.731   5.028
  587SOL    HW2 1761   1.629   1.835   5.131
  588SOL     OW 1762   1.870   0.135   4.683
  588SOL    HW1 1763   1.891   0.067   4.613
  588SOL    HW2 1764   1.779   0.172   4.668
  589SOL     OW 1765   0.269   0.288   4.446
  589SOL    HW1 1766   0.186   0.320   4.401
  589SOL    HW2 1767   0.264   0.311   4.543
  590SOL     OW 1768   1.218   1.606   3.735
  590SOL    HW1 1769   1.192   1.524   3.786
  590SOL    HW2 1770   1.157   1.618   3.657
  591SOL     OW 1771   0.840   0.993   5.077
  591SOL    HW1 1772   0.893   0.972   4.995
  591SOL    HW2 1773   0.829   1.092   5.085
  592SOL     OW 1774   0.913   0.918   4.001
  592SOL    HW1 1775   0.988   0.957   3.947
  592SOL    HW2 1776   0.928   0.820   4.014
  593SOL     OW 1777   1.521   1.634   3.799
  593SOL    HW1 1778   1.423   1.633   3.815
  593SOL    HW2 1779   1.540   1.648   3.702
  594SOL     OW 1780   0.390   1.313   5.250
  594SOL    HW1 1781   0.351   1.400   5.221
  594SOL    HW2 1782   0.328   1.238   5.225
  595SOL     OW 1783   1.619   1.289   5.030
  595SOL    HW1 1784   1.671   1.261   5.111
  595SOL    HW2 1785   1.562   1.367   5.052
  596SOL     OW 1786   1.014   1.153   4.453
  596SOL    HW1 1787   0.964   1.075   4.490
  596SOL    HW2 1788   1.071   1.123   4.376
  597SOL     OW 1789   1.065   0.183   4.689
  597SOL    HW1 1790   1.070   0.123   4.609
  597SOL    HW2 1791   0.983   0.161   4.741
  598SOL     OW 1792   0.606   1.483   4.171
  598SOL    HW1 1793   0.628   1.402   4.116
  598SOL    HW2 1794   0.555   1.548   4.114
  599SOL     OW 1795   1.731   0.376   5.129
  599SOL    HW1 1796   1.787   0.458   5.125
  599SOL    HW2 1797   1.759   0.313   5.056
  600SOL     OW 1798   0.238   1.350   4.033
  600SOL    HW1 1799   0.141   1.340   4.012
  600SOL    HW2 1800   0.249   1.394   4.122
  601SOL     OW 1801   0.118   1.051   5.504
  601SOL    HW1 1802   0.058   0.977   5.472
  601SOL    HW2 1803   0.212   1.016   5.511
  602SOL     OW 1804   0.682   0.212   5.184
  602SOL    HW1 1805   0.767   0.191   5.136
  602SOL    HW2 1806   0.703   0.238   5.278
  603SOL     OW 1807   0.031   0.346   3.757
  603SOL    HW1 1808   5.947   0.387   3.792
  603SOL    HW2 1809   0.086   0.417   3.712
  604SOL     OW 1810   1.433   0.849   5.106
  604SOL    HW1 1811   1.369   0.912   5.062
  604SOL    HW2 1812   1.525   0.865   5.072
  605SOL     OW 1813   0.057   0.184   4.075
  605SOL    HW1 1814   0.065   0.283   4.085
  605SOL    HW2 1815   0.134   0.149   4.022
  606SOL     OW 1816   1.185   1.352   3.843
  606SOL    HW1 1817   1.131   1.268   3.833
  606SOL    HW2 1818   1.221   1.357   3.936
  607SOL     OW 1819   0.621   0.828   5.148
  607SOL    HW1 1820   0.669   0.914   5.130
  607SOL    HW2 1821   0.688   0.756   5.167
  608SOL     OW 1822   1.494   1.799   4.733
  608SOL    HW1 1823   1.473   1.865   4.661
  608SOL    HW2 1824   1.590   1.770   4.724
  609SOL     OW 1825   0.700   0.575   5.435
  609SOL    HW1 1826   0.745   0.650   5.482
  609SOL    HW2 1827   0.715   0.490   5.486
  610SOL     OW 1828   1.465   1.205   5.352
  610SOL    HW1 1829   1.446   1.202   5.451
  610SOL    HW2 1830   1.559   1.237   5.338
  611SOL     OW 1831   0.375   1.710   5.273
  611SOL    HW1 1832   0.290   1.760   5.256
  611SOL    HW2 1833   0.359   1.641   5.344
  612SOL     OW 1834   1.672   0.869   4.958
  612SOL    HW1 1835   1.654   0.786   4.907
  612SOL    HW2 1836   1.666   0.948   4.897
  613SOL     OW 1837   1.224   0.318   4.197
  613SOL    HW1 1838   1.273   0.231   4.194
  613SOL    HW2 1839   1.255   0.371   4.276
  614SOL     OW 1840   0.549   0.734   4.399
  614SOL    HW1 1841   0.591   0.824   4.387
  614SOL    HW2 1842   0.485   0.717   4.325
  615SOL     OW 1843   1.743   0.370   5.398
  615SOL    HW1 1844   1.745   0.372   5.298
  615SOL    HW2 1845   1.663   0.318   5.429
  616SOL     OW 1846   1.750   0.953   5.202
  616SOL    HW1 1847   1.745   1.053   5.194
  616SOL    HW2 1848   1.739   0.912   5.112
  617SOL     OW 1849   0.845   1.417   3.730
  617SOL    HW1 1850   0.849   1.396   3.828
  617SOL    HW2 1851   0.896   1.501   3.712
  618SOL     OW 1852   0.679   1.803   4.675
  618SOL    HW1 1853   0.632   1.892   4.670
  618SOL    HW2 1854   0.775   1.815   4.650
  619SOL     OW 1855   0.868   0.974   4.597
  619SOL    HW1 1856   0.935   0.905   4.624
  619SOL    HW2 1857   0.840   1.026   4.678
  620SOL     OW 1858   1.084   1.031   3.804
  620SOL    HW1 1859   1.047   1.057   3.715
  620SOL    HW2 1860   1.157   0.963   3.792
  621SOL     OW 1861   1.812   1.565   4.584
  621SOL    HW1 1862   1.732   1.551   4.525
  621SOL    HW2 1863   1.805   1.504   4.663
  622SOL     OW 1864   0.226   1.318   5.594
  622SOL    HW1 1865   0.166   1.251   5.551
  622SOL    HW2 1866   0.192   1.340   5.686
  623SOL     OW 1867   0.108   1.214   4.360
  623SOL    HW1 1868   0.082   1.232   4.455
  623SOL    HW2 1869   0.179   1.279   4.332
  624SOL     OW 1870   0.748   1.386   5.347
  624SOL    HW1 1871   0.652   1.361   5.362
  624SOL    HW2 1872   0.768   1.471   5.394
  625SOL     OW 1873   1.816   0.200   4.951
  625SOL    HW1 1874   1.812   0.117   5.006
  625SOL    HW2 1875   1.846   0.178   4.858
  626SOL     OW 1876   0.401   0.418   4.236
  626SOL    HW1 1877   0.453   0.351   4.182
  626SOL    HW2 1878   0.358   0.371   4.314
  627SOL     OW 1879   1.689   1.465   4.830
  627SOL    HW1 1880   1.601   1.460   4.782
  627SOL    HW2 1881   1.693   1.393   4.900
  628SOL     OW 1882   0.305   0.561   4.983
  628SOL    HW1 1883   0.359   0.505   5.046
  628SOL    HW2 1884   0.331   0.541   4.889
  629SOL     OW 1885   0.816   1.571   4.412
  629SOL    HW1 1886   0.840   1.568   4.314
  629SOL    HW2 1887   0.718   1.552   4.423
  630SOL     OW 1888   1.483   0.269   4.873
  630SOL    HW1 1889   1.536   0.206   4.928
  630SOL    HW2 1890   1.448   0.343   4.930
  631SOL     OW 1891   1.000   5.961   4.918
  631SOL    HW1 1892   0.940   5.923   4.848
  631SOL    HW2 1893   1.085   5.993   4.876
  632SOL     OW 1894   0.833   1.281   4.061
  632SOL    HW1 1895   0.776   1.200   4.075
  632SOL    HW2 1896   0.876   1.307   4.148
  633SOL     OW 1897   0.652   1.561   5.006
  633SOL    HW1 1898   0.636   1.640   5.065
  633SOL    HW2 1899   0.749   1.555   4.983
  634SOL     OW 1900   1.359   0.070   3.865
  634SOL    HW1 1901   1.389   0.011   3.790
  634SOL    HW2 1902   1.291   0.022   3.920
  635SOL     OW 1903   1.289   0.471   4.421
  635SOL    HW1 1904   1.226   0.548   4.417
  635SOL    HW2 1905   1.297   0.439   4.515
  636SOL     OW 1906   1.630   0.243   4.633
  636SOL    HW1 1907   1.583   0.252   4.721
  636SOL    HW2 1908   1.596   0.312   4.570
  637SOL     OW 1909   0.078   1.103   4.029
  637SOL    HW1 1910   0.165   1.058   4.006
  637SOL    HW2 1911   0.047   1.071   4.118
  638SOL     OW 1912   0.871   1.635   4.024
  638SOL    HW1 1913   0.784   1.622   3.976
  638SOL    HW2 1914   0.867   1.718   4.080
  639SOL     OW 1915   0.243   0.658   5.715
  639SOL    HW1 1916   0.172   0.640   5.783
  639SOL    HW2 1917   0.217   0.616   5.628
  640SOL     OW 1918   1.789   0.594   5.815
  640SOL    HW1 1919   1.786   0.620   5.719
  640SOL    HW2 1920   1.709   0.537   5.837
  641SOL     OW 1921   0.282   1.666   0.081
  641SOL    HW1 1922   0.292   1.759   0.116
  641SOL    HW2 1923   0.324   1.661   5.990
  642SOL     OW 1924   0.594   0.969   5.750
  642SOL    HW1 1925   0.617   1.038   5.682
  642SOL    HW2 1926   0.627   0.999   5.840
  643SOL     OW 1927   1.859   1.742   5.919
  643SOL    HW1 1928   1.927   1.696   5.977
  643SOL    HW2 1929   1.872   1.841   5.924
  644SOL     OW 1930   0.062   1.600   5.739
  644SOL    HW1 1931   0.029   1.510   5.708
  644SOL    HW2 1932   0.014   1.626   5.823
  645SOL     OW 1933   1.716   0.930   0.217
  645SOL    HW1 1934   1.788   0.879   0.265
  645SOL    HW2 1935   1.738   0.937   0.120
  646SOL     OW 1936   1.664   1.134   5.964
  646SOL    HW1 1937   1.763   1.119   5.973
  646SOL    HW2 1938   1.621   1.130   0.055
  647SOL     OW 1939   1.529   0.979   5.771
  647SOL    HW1 1940   1.435   0.946   5.779
  647SOL    HW2 1941   1.559   1.016   5.859
  648SOL     OW 1942   0.557   0.730   5.878
  648SOL    HW1 1943   0.588   0.798   5.812
  648SOL    HW2 1944   0.545   0.774   5.967
  649SOL     OW 1945   0.838   0.396   5.715
  649SOL    HW1 1946   0.923   0.418   5.666
  649SOL    HW2 1947   0.850   0.311   5.767
  650SOL     OW 1948   0.313   0.937   5.842
  650SOL    HW1 1949   0.405   0.956   5.807
  650SOL    HW2 1950   0.274   0.859   5.794
  651SOL     OW 1951   1.136   1.780   5.832
  651SOL    HW1 1952   1.047   1.737   5.848
  651SOL    HW2 1953   1.177   1.741   5.749
  652SOL     OW 1954   1.649   1.349   5.632
  652SOL    HW1 1955   1.629   1.443   5.658
  652SOL    HW2 1956   1.563   1.301   5.614
  653SOL     OW 1957   0.453   1.745   5.887
  653SOL    HW1 1958   0.495   1.783   5.970
  653SOL    HW2 1959   0.525   1.708   5.827
  654SOL     OW 1960   0.598   0.098   5.664
  654SOL    HW1 1961   0.695   0.074   5.662
  654SOL    HW2 1962   0.553   0.064   5.582
  655SOL     OW 1963   1.415   1.189   5.611
  655SOL    HW1 1964   1.463   1.113   5.654
  655SOL    HW2 1965   1.347   1.226   5.674
  656SOL     OW 1966   0.284   0.063   5.778
  656SOL    HW1 1967   0.311   0.131   5.710
  656SOL    HW2 1968   0.326   5.974   5.756
  657SOL     OW 1969   1.013   0.533   5.551
  657SOL    HW1 1970   0.947   0.609   5.551
  657SOL    HW2 1971   1.097   0.561   5.598
  658SOL     OW 1972   1.843   0.825   5.966
  658SOL    HW1 1973   1.885   0.781   0.045
  658SOL    HW2 1974   1.825   0.757   5.894
  659SOL     OW 1975   0.500   1.422   5.781
  659SOL    HW1 1976   0.410   1.404   5.822
  659SOL    HW2 1977   0.499   1.394   5.685
  660SOL     OW 1978   1.701   1.341   0.336
  660SOL    HW1 1979   1.779   1.283   0.317
  660SOL    HW2 1980   1.644   1.349   0.255
  661SOL     OW 1981   1.378   0.595   5.664
  661SOL    HW1 1982   1.314   0.574   5.738
  661SOL    HW2 1983   1.472   0.582   5.695
  662SOL     OW 1984   0.532   0.236   5.875
  662SOL    HW1 1985   0.532   0.182   5.790
  662SOL    HW2 1986   0.520   0.333   5.852
  663SOL     OW 1987   0.380   1.093   0.060
  663SOL    HW1 1988   0.393   1.191   0.051
  663SOL    HW2 1989   0.341   1.056   5.976
  664SOL     OW 1990   1.243   0.567   5.885
  664SOL    HW1 1991   1.284   0.481   5.917
  664SOL    HW2 1992   1.151   0.577   5.924
  665SOL     OW 1993   1.500   0.300   5.737
  665SOL    HW1 1994   1.437   0.222   5.737
  665SOL    HW2 1995   1.573   0.285   5.803
  666SOL     OW 1996   1.289   0.844   5.596
  666SOL    HW1 1997   1.321   0.752   5.616
  666SOL    HW2 1998   1.324   0.872   5.507
  667SOL     OW 1999   5.999   1.327   5.762
  667SOL    HW1 2000   5.904   1.327   5.729
  667SOL    HW2 2001   0.019   1.239   5.805
  668SOL     OW 2002   0.813   0.607   5.873
  668SOL    HW1 2003   0.817   0.520   5.824
  668SOL    HW2 2004   0.718   0.638   5.878
  669SOL     OW 2005   0.483   0.471   5.763
  669SOL    HW1 2006   0.529   0.555   5.792
  669SOL    HW2 2007   0.390   0.493   5.732
  670SOL     OW 2008   1.692   0.083   0.148
  670SOL    HW1 2009   1.736   0.158   0.098
  670SOL    HW2 2010   1.752   0.002   0.145
  671SOL     OW 2011   0.675   1.620   5.762
  671SOL    HW1 2012   0.682   1.636   5.664
  671SOL    HW2 2013   0.610   1.546   5.780
  672SOL     OW 2014   1.228   1.626   5.616
  672SOL    HW1 2015   1.195   1.537   5.647
  672SOL    HW2 2016   1.186   1.649   5.528
  673SOL     OW 2017   0.948   0.876   5.885
  673SOL    HW1 2018   0.994   0.909   5.802
  673SOL    HW2 2019   0.935   0.777   5.879
  674SOL     OW 2020   1.521   1.658   5.655
  674SOL    HW1 2021   1.424   1.634   5.658
  674SOL    HW2 2022   1.550   1.670   5.560
  675SOL     OW 2023   1.062   1.101   0.341
  675SOL    HW1 2024   0.962   1.095   0.342
  675SOL    HW2 2025   1.097   1.059   0.258
  676SOL     OW 2026   0.258   1.402   5.912
  676SOL    HW1 2027   0.169   1.412   5.870
  676SOL    HW2 2028   0.257   1.441   0.004
  677SOL     OW 2029   0.047   0.368   5.618
  677SOL    HW1 2030   5.960   0.410   5.641
  677SOL    HW2 2031   0.099   0.429   5.558
  678SOL     OW 2032   0.067   0.169   5.907
  678SOL    HW1 2033   0.036   0.260   5.878
  678SOL    HW2 2034   0.139   0.137   5.846
  679SOL     OW 2035   1.205   1.359   5.745
  679SOL    HW1 2036   1.110   1.341   5.722
  679SOL    HW2 2037   1.228   1.315   5.832
  680SOL     OW 2038   1.286   0.331   0.010
  680SOL    HW1 2039   1.252   0.243   5.979
  680SOL    HW2 2040   1.333   0.320   0.098
  681SOL     OW 2041   0.855   1.400   5.619
  681SOL    HW1 2042   0.798   1.452   5.683
  681SOL    HW2 2043   0.912   1.463   5.567
  682SOL     OW 2044   1.075   0.980   5.674
  682SOL    HW1 2045   1.034   1.023   5.593
  682SOL    HW2 2046   1.162   0.938   5.649
  683SOL     OW 2047   1.356   0.076   5.735
  683SOL    HW1 2048   1.381   0.000   5.675
  683SOL    HW2 2049   1.301   0.041   5.811
  684SOL     OW 2050   0.068   1.100   5.892
  684SOL    HW1 2051   0.150   1.044   5.879
  684SOL    HW2 2052   5.995   1.043   5.930
  685SOL     OW 2053   0.908   1.644   5.904
  685SOL    HW1 2054   0.822   1.627   5.855
  685SOL    HW2 2055   0.897   1.724   5.964
  686SOL     OW 2056   0.254   2.543   0.148
  686SOL    HW1 2057   0.161   2.522   0.178
  686SOL    HW2 2058   0.272   2.498   0.060
  687SOL     OW 2059   0.218   2.132   0.976
  687SOL    HW1 2060   0.245   2.110   1.069
  687SOL    HW2 2061   0.119   2.146   0.972
  688SOL     OW 2062   0.025   2.246   0.615
  688SOL    HW1 2063   5.975   2.272   0.698
  688SOL    HW2 2064   5.988   2.161   0.578
  689SOL     OW 2065   0.579   3.096   1.236
  689SOL    HW1 2066   0.486   3.063   1.224
  689SOL    HW2 2067   0.582   3.194   1.217
  690SOL     OW 2068   1.555   3.385   0.706
  690SOL    HW1 2069   1.518   3.345   0.791
  690SOL    HW2 2070   1.481   3.393   0.639
  691SOL     OW 2071   1.111   2.556   0.640
  691SOL    HW1 2072   1.167   2.639   0.647
  691SOL    HW2 2073   1.054   2.548   0.722
  692SOL     OW 2074   1.681   2.463   0.194
  692SOL    HW1 2075   1.721   2.443   0.104
  692SOL    HW2 2076   1.657   2.377   0.238
  693SOL     OW 2077   0.770   3.031   1.057
  693SOL    HW1 2078   0.693   3.046   1.119
  693SOL    HW2 2079   0.787   3.114   1.004
  694SOL     OW 2080   0.847   2.673   1.798
  694SOL    HW1 2081   0.844   2.757   1.853
  694SOL    HW2 2082   0.859   2.697   1.701
  695SOL     OW 2083   0.675   2.839   0.703
  695SOL    HW1 2084   0.753   2.844   0.765
  695SOL    HW2 2085   0.615   2.918   0.718
  696SOL     OW 2086   0.703   3.017   1.818
  696SOL    HW1 2087   0.765   3.096   1.821
  696SOL    HW2 2088   0.613   3.048   1.788
  697SOL     OW 2089   0.364   3.289   1.031
  697SOL    HW1 2090   0.279   3.262   0.987
  697SOL    HW2 2091   0.410   3.358   0.975
  698SOL     OW 2092   1.480   3.379   1.349
  698SOL    HW1 2093   1.542   3.457   1.358
  698SOL    HW2 2094   1.401   3.391   1.410
  699SOL     OW 2095   0.403   2.275   1.492
  699SOL    HW1 2096   0.489   2.226   1.476
  699SOL    HW2 2097   0.329   2.208   1.504
  700SOL     OW 2098   1.649   2.318   0.757
  700SOL    HW1 2099   1.610   2.364   0.677
  700SOL    HW2 2100   1.636   2.375   0.838
  701SOL     OW 2101   0.248   3.565   0.488
  701SOL    HW1 2102   0.275   3.649   0.533
  701SOL    HW2 2103   0.313   3.545   0.413
  702SOL     OW 2104   1.100   3.198   1.693
  702SOL    HW1 2105   1.158   3.212   1.774
  702SOL    HW2 2106   1.040   3.120   1.708
  703SOL     OW 2107   0.251   3.297   0.554
  703SOL    HW1 2108   0.248   3.396   0.553
  703SOL    HW2 2109   0.164   3.260   0.587
  704SOL     OW 2110   0.256   2.943   0.904
  704SOL    HW1 2111   0.259   2.851   0.944
  704SOL    HW2 2112   0.216   3.007   0.970
  705SOL     OW 2113   0.630   3.634   1.449
  705SOL    HW1 2114   0.546   3.599   1.491
  705SOL    HW2 2115   0.640   3.731   1.471
  706SOL     OW 2116   0.593   2.789   0.133
  706SOL    HW1 2117   0.523   2.856   0.108
  706SOL    HW2 2118   0.661   2.832   0.191
  707SOL     OW 2119   1.641   2.006   1.478
  707SOL    HW1 2120   1.645   2.096   1.433
  707SOL    HW2 2121   1.591   2.015   1.565
  708SOL     OW 2122   0.134   2.505   0.596
  708SOL    HW1 2123   0.098   2.418   0.563
  708SOL    HW2 2124   0.065   2.550   0.653
  709SOL     OW 2125   1.889   3.600   0.338
  709SOL    HW1 2126   1.892   3.574   0.435
  709SOL    HW2 2127   1.894   3.699   0.330
  710SOL     OW 2128   0.013   3.422   0.089
  710SOL    HW1 2129   0.023   3.326   0.114
  710SOL    HW2 2130   5.981   3.475   0.168
  711SOL     OW 2131   1.672   2.759   0.661
  711SOL    HW1 2132   1.747   2.725   0.605
  711SOL    HW2 2133   1.628   2.836   0.615
  712SOL     OW 2134   1.628   2.973   0.505
  712SOL    HW1 2135   1.672   2.971   0.416
  712SOL    HW2 2136   1.667   3.045   0.561
  713SOL     OW 2137   0.095   2.632   1.693
  713SOL    HW1 2138   0.174   2.649   1.752
  713SOL    HW2 2139   0.111   2.674   1.604
  714SOL     OW 2140   0.581   3.240   0.715
  714SOL    HW1 2141   0.532   3.154   0.724
  714SOL    HW2 2142   0.571   3.275   0.622
  715SOL     OW 2143   1.299   3.088   1.438
  715SOL    HW1 2144   1.310   3.025   1.361
  715SOL    HW2 2145   1.368   3.068   1.508
  716SOL     OW 2146   0.820   1.883   0.505
  716SOL    HW1 2147   0.869   1.968   0.484
  716SOL    HW2 2148   0.723   1.903   0.516
  717SOL     OW 2149   0.226   2.834   1.216
  717SOL    HW1 2150   0.304   2.772   1.207
  717SOL    HW2 2151   0.151   2.803   1.159
  718SOL     OW 2152   1.474   2.929   0.176
  718SOL    HW1 2153   1.409   2.860   0.144
  718SOL    HW2 2154   1.528   2.891   0.252
  719SOL     OW 2155   1.202   3.686   1.628
  719SOL    HW1 2156   1.167   3.738   1.551
  719SOL    HW2 2157   1.224   3.593   1.599
  720SOL     OW 2158   0.314   2.110   1.830
  720SOL    HW1 2159   0.372   2.188   1.809
  720SOL    HW2 2160   0.224   2.143   1.859
  721SOL     OW 2161   1.477   3.260   0.929
  721SOL    HW1 2162   1.413   3.271   1.004
  721SOL    HW2 2163   1.480   3.164   0.901
  722SOL     OW 2164   1.667   3.592   0.553
  722SOL    HW1 2165   1.622   3.567   0.467
  722SOL    HW2 2166   1.641   3.527   0.624
  723SOL     OW 2167   0.616   2.567   0.292
  723SOL    HW1 2168   0.612   2.645   0.230
  723SOL    HW2 2169   0.545   2.577   0.362
  724SOL     OW 2170   1.295   2.230   0.934
  724SOL    HW1 2171   1.198   2.206   0.934
  724SOL    HW2 2172   1.343   2.176   1.004
  725SOL     OW 2173   1.583   3.513   0.307
  725SOL    HW1 2174   1.680   3.534   0.300
  725SOL    HW2 2175   1.543   3.505   0.216
  726SOL     OW 2176   0.799   2.471   1.467
  726SOL    HW1 2177   0.758   2.440   1.553
  726SOL    HW2 2178   0.758   2.420   1.391
  727SOL     OW 2179   1.390   2.389   1.697
  727SOL    HW1 2180   1.365   2.419   1.789
  727SOL    HW2 2181   1.460   2.318   1.703
  728SOL     OW 2182   0.990   2.751   1.558
  728SOL    HW1 2183   1.040   2.671   1.526
  728SOL    HW2 2184   0.938   2.790   1.482
  729SOL     OW 2185   0.992   2.242   1.231
  729SOL    HW1 2186   0.910   2.291   1.260
  729SOL    HW2 2187   0.977   2.200   1.142
  730SOL     OW 2188   1.049   2.555   0.387
  730SOL    HW1 2189   1.065   2.554   0.486
  730SOL    HW2 2190   0.967   2.502   0.366
  731SOL     OW 2191   0.047   2.675   0.801
  731SOL    HW1 2192   0.144   2.658   0.815
  731SOL    HW2 2193   0.035   2.756   0.743
  732SOL     OW 2194   0.140   3.704   1.589
  732SOL    HW1 2195   0.153   3.691   1.687
  732SOL    HW2 2196   0.042   3.709   1.569
  733SOL     OW 2197   0.863   2.188   0.174
  733SOL    HW1 2198   0.916   2.253   0.119
  733SOL    HW2 2199   0.896   2.095   0.157
  734SOL     OW 2200   1.714   2.476   1.836
  734SOL    HW1 2201   1.680   2.562   1.800
  734SOL    HW2 2202   1.721   2.409   1.762
  735SOL     OW 2203   1.359   3.013   0.563
  735SOL    HW1 2204   1.448   2.997   0.522
  735SOL    HW2 2205   1.296   3.047   0.493
  736SOL     OW 2206   0.526   2.037   0.904
  736SOL    HW1 2207   0.552   2.068   0.996
  736SOL    HW2 2208   0.525   2.114   0.842
  737SOL     OW 2209   1.017   3.310   0.448
  737SOL    HW1 2210   0.954   3.379   0.412
  737SOL    HW2 2211   1.050   3.339   0.538
  738SOL     OW 2212   0.347   3.671   0.868
  738SOL    HW1 2213   0.399   3.586   0.874
  738SOL    HW2 2214   0.409   3.749   0.879
  739SOL     OW 2215   1.800   2.931   0.906
  739SOL    HW1 2216   1.757   2.948   0.817
  739SOL    HW2 2217   1.730   2.922   0.976
  740SOL     OW 2218   1.250   3.424   1.526
  740SOL    HW1 2219   1.273   3.330   1.548
  740SOL    HW2 2220   1.152   3.432   1.508
  741SOL     OW 2221   0.311   2.780   0.277
  741SOL    HW1 2222   0.362   2.849   0.226
  741SOL    HW2 2223   0.287   2.704   0.216
  742SOL     OW 2224   1.459   2.608   0.738
  742SOL    HW1 2225   1.461   2.548   0.818
  742SOL    HW2 2226   1.550   2.647   0.723
  743SOL     OW 2227   0.476   3.142   1.756
  743SOL    HW1 2228   0.448   3.138   1.660
  743SOL    HW2 2229   0.396   3.155   1.814
  744SOL     OW 2230   1.147   3.619   0.250
  744SOL    HW1 2231   1.078   3.581   0.311
  744SOL    HW2 2232   1.153   3.563   0.167
  745SOL     OW 2233   0.193   2.094   1.482
  745SOL    HW1 2234   0.112   2.149   1.464
  745SOL    HW2 2235   0.168   2.010   1.529
  746SOL     OW 2236   1.592   3.222   0.086
  746SOL    HW1 2237   1.618   3.316   0.065
  746SOL    HW2 2238   1.576   3.172   0.001
  747SOL     OW 2239   0.484   3.607   0.316
  747SOL    HW1 2240   0.525   3.673   0.379
  747SOL    HW2 2241   0.550   3.581   0.246
  748SOL     OW 2242   1.380   1.987   0.419
  748SOL    HW1 2243   1.372   1.955   0.324
  748SOL    HW2 2244   1.475   2.010   0.438
  749SOL     OW 2245   0.226   3.657   1.203
  749SOL    HW1 2246   0.288   3.583   1.230
  749SOL    HW2 2247   0.190   3.639   1.112
  750SOL     OW 2248   0.950   3.577   0.890
  750SOL    HW1 2249   1.014   3.511   0.929
  750SOL    HW2 2250   0.899   3.533   0.816
  751SOL     OW 2251   0.393   2.533   0.488
  751SOL    HW1 2252   0.390   2.437   0.518
  751SOL    HW2 2253   0.301   2.570   0.483
  752SOL     OW 2254   1.515   2.111   1.742
  752SOL    HW1 2255   1.521   2.137   1.839
  752SOL    HW2 2256   1.435   2.053   1.728
  753SOL     OW 2257   0.619   1.955   0.088
  753SOL    HW1 2258   0.719   1.960   0.094
  753SOL    HW2 2259   0.587   2.023   0.022
  754SOL     OW 2260   0.746   2.139   1.752
  754SOL    HW1 2261   0.838   2.100   1.757
  754SOL    HW2 2262   0.694   2.115   1.834
  755SOL     OW 2263   0.907   3.409   1.190
  755SOL    HW1 2264   0.865   3.371   1.107
  755SOL    HW2 2265   0.981   3.349   1.220
  756SOL     OW 2266   1.331   2.467   1.451
  756SOL    HW1 2267   1.360   2.446   1.545
  756SOL    HW2 2268   1.370   2.555   1.423
  757SOL     OW 2269   0.779   3.255   0.898
  757SOL    HW1 2270   0.865   3.289   0.860
  757SOL    HW2 2271   0.715   3.236   0.823
  758SOL     OW 2272   0.919   2.364   0.901
  758SOL    HW1 2273   0.883   2.340   0.811
  758SOL    HW2 2274   0.940   2.281   0.952
  759SOL     OW 2275   0.559   1.938   0.489
  759SOL    HW1 2276   0.477   1.928   0.543
  759SOL    HW2 2277   0.554   2.022   0.434
  760SOL     OW 2278   1.348   3.082   5.986
  760SOL    HW1 2279   1.414   3.021   0.029
  760SOL    HW2 2280   1.296   3.131   0.056
  761SOL     OW 2281   0.945   2.107   0.439
  761SOL    HW1 2282   0.899   2.157   0.366
  761SOL    HW2 2283   1.041   2.133   0.442
  762SOL     OW 2284   1.081   2.529   1.442
  762SOL    HW1 2285   1.013   2.456   1.447
  762SOL    HW2 2286   1.173   2.488   1.446
  763SOL     OW 2287   1.214   3.429   0.815
  763SOL    HW1 2288   1.257   3.462   0.731
  763SOL    HW2 2289   1.280   3.431   0.890
  764SOL     OW 2290   0.459   2.993   0.724
  764SOL    HW1 2291   0.380   2.976   0.782
  764SOL    HW2 2292   0.429   3.005   0.629
  765SOL     OW 2293   1.303   3.679   0.598
  765SOL    HW1 2294   1.325   3.747   0.528
  765SOL    HW2 2295   1.252   3.723   0.672
  766SOL     OW 2296   1.003   2.415   0.064
  766SOL    HW1 2297   0.930   2.445   0.003
  766SOL    HW2 2298   1.025   2.489   0.128
  767SOL     OW 2299   0.087   2.410   1.431
  767SOL    HW1 2300   0.160   2.410   1.363
  767SOL    HW2 2301   0.091   2.495   1.484
  768SOL     OW 2302   0.553   2.094   1.181
  768SOL    HW1 2303   0.611   2.030   1.232
  768SOL    HW2 2304   0.457   2.078   1.204
  769SOL     OW 2305   0.857   2.284   0.648
  769SOL    HW1 2306   0.806   2.336   0.580
  769SOL    HW2 2307   0.912   2.214   0.602
  770SOL     OW 2308   0.959   1.943   0.744
  770SOL    HW1 2309   0.925   1.911   0.656
  770SOL    HW2 2310   0.993   1.865   0.797
  771SOL     OW 2311   1.410   3.009   0.854
  771SOL    HW1 2312   1.353   2.942   0.902
  771SOL    HW2 2313   1.386   3.009   0.757
  772SOL     OW 2314   1.481   2.431   0.939
  772SOL    HW1 2315   1.415   2.356   0.941
  772SOL    HW2 2316   1.533   2.432   1.025
  773SOL     OW 2317   1.878   2.666   0.396
  773SOL    HW1 2318   1.913   2.593   0.455
  773SOL    HW2 2319   1.810   2.629   0.333
  774SOL     OW 2320   0.473   3.250   0.203
  774SOL    HW1 2321   0.391   3.224   0.254
  774SOL    HW2 2322   0.448   3.276   0.110
  775SOL     OW 2323   1.716   3.159   0.709
  775SOL    HW1 2324   1.809   3.168   0.672
  775SOL    HW2 2325   1.670   3.247   0.706
  776SOL     OW 2326   1.385   2.468   0.076
  776SOL    HW1 2327   1.324   2.434   0.147
  776SOL    HW2 2328   1.472   2.419   0.081
  777SOL     OW 2329   0.538   2.155   0.316
  777SOL    HW1 2330   0.583   2.101   0.246
  777SOL    HW2 2331   0.507   2.242   0.277
  778SOL     OW 2332   1.742   3.147   1.576
  778SOL    HW1 2333   1.821   3.086   1.585
  778SOL    HW2 2334   1.770   3.241   1.596
  779SOL     OW 2335   1.059   3.213   1.356
  779SOL    HW1 2336   0.970   3.189   1.395
  779SOL    HW2 2337   1.131   3.171   1.410
  780SOL     OW 2338   1.602   3.526   1.654
  780SOL    HW1 2339   1.592   3.547   1.556
  780SOL    HW2 2340   1.685   3.473   1.668
  781SOL     OW 2341   1.056   3.038   1.133
  781SOL    HW1 2342   1.064   3.106   1.206
  781SOL    HW2 2343   1.034   3.085   1.047
  782SOL     OW 2344   1.622   2.947   1.101
  782SOL    HW1 2345   1.622   3.028   1.159
  782SOL    HW2 2346   1.557   2.960   1.026
  783SOL     OW 2347   0.908   1.956   1.393
  783SOL    HW1 2348   0.940   1.928   1.303
  783SOL    HW2 2349   0.982   2.005   1.440
  784SOL     OW 2350   0.948   2.963   1.718
  784SOL    HW1 2351   0.848   2.964   1.729
  784SOL    HW2 2352   0.973   2.892   1.652
  785SOL     OW 2353   0.738   2.932   0.353
  785SOL    HW1 2354   0.682   2.922   0.436
  785SOL    HW2 2355   0.805   2.858   0.349
  786SOL     OW 2356   0.417   2.659   1.233
  786SOL    HW1 2357   0.497   2.666   1.293
  786SOL    HW2 2358   0.372   2.571   1.247
  787SOL     OW 2359   1.272   2.277   1.274
  787SOL    HW1 2360   1.298   2.354   1.332
  787SOL    HW2 2361   1.173   2.279   1.258
  788SOL     OW 2362   0.086   3.406   1.339
  788SOL    HW1 2363   0.033   3.478   1.293
  788SOL    HW2 2364   0.181   3.434   1.347
  789SOL     OW 2365   0.393   3.033   0.466
  789SOL    HW1 2366   0.341   3.094   0.406
  789SOL    HW2 2367   0.373   2.938   0.443
  790SOL     OW 2368   0.578   2.399   0.867
  790SOL    HW1 2369   0.564   2.476   0.804
  790SOL    HW2 2370   0.650   2.424   0.933
  791SOL     OW 2371   1.269   3.211   0.368
  791SOL    HW1 2372   1.311   3.290   0.413
  791SOL    HW2 2373   1.172   3.206   0.394
  792SOL     OW 2374   1.325   3.290   1.145
  792SOL    HW1 2375   1.374   3.327   1.224
  792SOL    HW2 2376   1.254   3.228   1.176
  793SOL     OW 2377   1.630   2.483   0.489
  793SOL    HW1 2378   1.536   2.498   0.519
  793SOL    HW2 2379   1.645   2.530   0.402
  794SOL     OW 2380   0.361   3.416   1.279
  794SOL    HW1 2381   0.362   3.361   1.195
  794SOL    HW2 2382   0.454   3.428   1.313
  795SOL     OW 2383   0.415   2.622   1.583
  795SOL    HW1 2384   0.487   2.663   1.526
  795SOL    HW2 2385   0.449   2.538   1.624
  796SOL     OW 2386   1.632   2.685   1.681
  796SOL    HW1 2387   1.532   2.688   1.673
  796SOL    HW2 2388   1.673   2.729   1.601
  797SOL     OW 2389   0.994   1.991   1.769
  797SOL    HW1 2390   1.063   2.043   1.718
  797SOL    HW2 2391   1.002   1.894   1.747
  798SOL     OW 2392   0.453   1.860   1.762
  798SOL    HW1 2393   0.413   1.811   1.684
  798SOL    HW2 2394   0.405   1.946   1.776
  799SOL     OW 2395   0.600   2.718   1.020
  799SOL    HW1 2396   0.650   2.805   1.020
  799SOL    HW2 2397   0.526   2.722   1.086
  800SOL     OW 2398   1.326   2.695   1.064
  800SOL    HW1 2399   1.244   2.692   1.007
  800SOL    HW2 2400   1.376   2.609   1.056
  801SOL     OW 2401   1.226   2.391   0.268
  801SOL    HW1 2402   1.225   2.307   0.322
  801SOL    HW2 2403   1.162   2.457   0.307
  802SOL     OW 2404   0.300   2.048   1.234
  802SOL    HW1 2405   0.256   2.074   1.319
  802SOL    HW2 2406   0.277   1.953   1.212
  803SOL     OW 2407   0.057   3.149   1.294
  803SOL    HW1 2408   0.109   3.100   1.364
  803SOL    HW2 2409   0.064   3.247   1.310
  804SOL     OW 2410   0.754   2.504   1.065
  804SOL    HW1 2411   0.822   2.474   0.997
  804SOL    HW2 2412   0.710   2.587   1.033
  805SOL     OW 2413   1.785   2.832   1.846
  805SOL    HW1 2414   1.742   2.764   1.786
  805SOL    HW2 2415   1.731   2.842   1.929
  806SOL     OW 2416   0.325   1.915   0.625
  806SOL    HW1 2417   0.299   2.008   0.654
  806SOL    HW2 2418   0.338   1.858   0.706
  807SOL     OW 2419   1.639   2.243   0.357
  807SOL    HW1 2420   1.668   2.162   0.409
  807SOL    HW2 2421   1.632   2.321   0.419
  808SOL     OW 2422   1.048   2.638   0.962
  808SOL    HW1 2423   1.041   2.647   1.061
  808SOL    HW2 2424   0.997   2.557   0.932
  809SOL     OW 2425   0.994   3.443   1.717
  809SOL    HW1 2426   0.954   3.482   1.634
  809SOL    HW2 2427   1.022   3.349   1.700
  810SOL     OW 2428   1.837   3.391   1.635
  810SOL    HW1 2429   1.867   3.417   1.543
  810SOL    HW2 2430   1.916   3.392   1.697
  811SOL     OW 2431   0.352   2.808   1.782
  811SOL    HW1 2432   0.420   2.818   1.854
  811SOL    HW2 2433   0.385   2.745   1.712
  812SOL     OW 2434   1.481   2.144   0.161
  812SOL    HW1 2435   1.484   2.044   0.153
  812SOL    HW2 2436   1.539   2.173   0.237
  813SOL     OW 2437   1.332   2.720   0.039
  813SOL    HW1 2438   1.344   2.622   0.055
  813SOL    HW2 2439   1.291   2.735   5.949
  814SOL     OW 2440   1.061   3.221   0.900
  814SOL    HW1 2441   1.059   3.150   0.830
  814SOL    HW2 2442   1.114   3.299   0.867
  815SOL     OW 2443   0.301   2.661   0.930
  815SOL    HW1 2444   0.396   2.679   0.905
  815SOL    HW2 2445   0.293   2.568   0.966
  816SOL     OW 2446   0.361   2.360   0.998
  816SOL    HW1 2447   0.329   2.265   0.993
  816SOL    HW2 2448   0.440   2.372   0.937
  817SOL     OW 2449   1.190   2.214   1.707
  817SOL    HW1 2450   1.111   2.266   1.741
  817SOL    HW2 2451   1.264   2.278   1.684
  818SOL     OW 2452   1.139   2.067   1.496
  818SOL    HW1 2453   1.166   2.124   1.573
  818SOL    HW2 2454   1.181   2.102   1.412
  819SOL     OW 2455   5.972   3.177   0.178
  819SOL    HW1 2456   5.882   3.219   0.187
  819SOL    HW2 2457   5.977   3.096   0.236
  820SOL     OW 2458   0.095   3.642   0.955
  820SOL    HW1 2459   0.053   3.572   0.898
  820SOL    HW2 2460   0.185   3.665   0.918
  821SOL     OW 2461   0.502   3.457   0.890
  821SOL    HW1 2462   0.584   3.506   0.919
  821SOL    HW2 2463   0.527   3.381   0.830
  822SOL     OW 2464   0.991   2.660   1.215
  822SOL    HW1 2465   1.043   2.654   1.301
  822SOL    HW2 2466   0.902   2.616   1.228
  823SOL     OW 2467   5.984   2.413   1.170
  823SOL    HW1 2468   0.018   2.331   1.125
  823SOL    HW2 2469   0.014   2.413   1.265
  824SOL     OW 2470   0.224   2.391   1.722
  824SOL    HW1 2471   0.283   2.368   1.644
  824SOL    HW2 2472   0.164   2.467   1.698
  825SOL     OW 2473   1.379   2.781   1.655
  825SOL    HW1 2474   1.404   2.878   1.660
  825SOL    HW2 2475   1.368   2.755   1.559
  826SOL     OW 2476   0.831   2.425   0.326
  826SOL    HW1 2477   0.815   2.346   0.266
  826SOL    HW2 2478   0.752   2.486   0.323
  827SOL     OW 2479   1.632   2.446   1.172
  827SOL    HW1 2480   1.619   2.414   1.265
  827SOL    HW2 2481   1.729   2.438   1.147
  828SOL     OW 2482   0.280   3.437   1.766
  828SOL    HW1 2483   0.220   3.496   1.820
  828SOL    HW2 2484   0.258   3.341   1.785
  829SOL     OW 2485   0.676   2.342   1.265
  829SOL    HW1 2486   0.643   2.250   1.246
  829SOL    HW2 2487   0.683   2.393   1.179
  830SOL     OW 2488   0.914   3.530   1.481
  830SOL    HW1 2489   0.912   3.477   1.396
  830SOL    HW2 2490   0.898   3.626   1.460
  831SOL     OW 2491   0.464   2.365   0.190
  831SOL    HW1 2492   0.541   2.423   0.215
  831SOL    HW2 2493   0.379   2.414   0.205
  832SOL     OW 2494   0.183   2.996   1.473
  832SOL    HW1 2495   0.141   2.976   1.561
  832SOL    HW2 2496   0.169   2.920   1.410
  833SOL     OW 2497   1.294   2.902   1.235
  833SOL    HW1 2498   1.318   2.834   1.165
  833SOL    HW2 2499   1.201   2.935   1.219
  834SOL     OW 2500   1.328   2.723   0.332
  834SOL    HW1 2501   1.234   2.709   0.362
  834SOL    HW2 2502   1.352   2.653   0.264
  835SOL     OW 2503   1.783   3.567   1.153
  835SOL    HW1 2504   1.856   3.588   1.088
  835SOL    HW2 2505   1.741   3.479   1.129
  836SOL     OW 2506   1.233   3.561   1.143
  836SOL    HW1 2507   1.308   3.621   1.114
  836SOL    HW2 2508   1.258   3.466   1.123
  837SOL     OW 2509   0.087   3.117   1.031
  837SOL    HW1 2510   0.084   3.115   1.131
  837SOL    HW2 2511   0.001   3.081   0.994
  838SOL     OW 2512   0.705   3.536   1.754
  838SOL    HW1 2513   0.608   3.551   1.736
  838SOL    HW2 2514   0.757   3.551   1.670
  839SOL     OW 2515   0.951   1.941   0.133
  839SOL    HW1 2516   1.012   1.956   0.055
  839SOL    HW2 2517   1.003   1.905   0.210
  840SOL     OW 2518   1.730   2.023   0.499
  840SOL    HW1 2519   1.800   2.005   0.430
  840SOL    HW2 2520   1.692   1.936   0.531
  841SOL     OW 2521   1.348   3.454   0.457
  841SOL    HW1 2522   1.422   3.463   0.391
  841SOL    HW2 2523   1.324   3.545   0.493
  842SOL     OW 2524   0.125   3.662   1.845
  842SOL    HW1 2525   0.056   3.595   1.872
  842SOL    HW2 2526   0.171   3.696   1.927
  843SOL     OW 2527   1.268   2.769   0.650
  843SOL    HW1 2528   1.339   2.707   0.684
  843SOL    HW2 2529   1.310   2.839   0.591
  844SOL     OW 2530   0.783   3.103   1.419
  844SOL    HW1 2531   0.764   3.163   1.496
  844SOL    HW2 2532   0.707   3.107   1.354
  845SOL     OW 2533   0.652   3.472   0.143
  845SOL    HW1 2534   0.688   3.437   0.057
  845SOL    HW2 2535   0.620   3.396   0.199
  846SOL     OW 2536   1.628   3.599   1.381
  846SOL    HW1 2537   1.686   3.600   1.299
  846SOL    HW2 2538   1.614   3.693   1.413
  847SOL     OW 2539   1.862   2.035   0.952
  847SOL    HW1 2540   1.874   1.936   0.939
  847SOL    HW2 2541   1.768   2.061   0.930
  848SOL     OW 2542   0.255   2.144   0.707
  848SOL    HW1 2543   0.174   2.193   0.675
  848SOL    HW2 2544   0.253   2.138   0.807
  849SOL     OW 2545   1.240   3.447   0.026
  849SOL    HW1 2546   1.204   3.363   0.068
  849SOL    HW2 2547   1.181   3.474   5.950
  850SOL     OW 2548   0.838   2.859   1.359
  850SOL    HW1 2549   0.893   2.862   1.276
  850SOL    HW2 2550   0.812   2.952   1.386
  851SOL     OW 2551   0.910   2.747   0.271
  851SOL    HW1 2552   0.971   2.795   0.208
  851SOL    HW2 2553   0.963   2.682   0.325
  852SOL     OW 2554   1.486   3.533   0.065
  852SOL    HW1 2555   1.395   3.491   0.070
  852SOL    HW2 2556   1.519   3.528   5.971
  853SOL     OW 2557   0.386   3.166   1.503
  853SOL    HW1 2558   0.353   3.253   1.465
  853SOL    HW2 2559   0.317   3.095   1.489
  854SOL     OW 2560   1.624   3.156   1.286
  854SOL    HW1 2561   1.685   3.142   1.364
  854SOL    HW2 2562   1.555   3.224   1.310
  855SOL     OW 2563   1.018   3.013   0.713
  855SOL    HW1 2564   0.978   2.932   0.755
  855SOL    HW2 2565   1.077   2.986   0.637
  856SOL     OW 2566   0.979   2.107   0.984
  856SOL    HW1 2567   0.958   2.078   0.890
  856SOL    HW2 2568   1.003   2.027   1.039
  857SOL     OW 2569   0.609   3.339   0.446
  857SOL    HW1 2570   0.654   3.273   0.386
  857SOL    HW2 2571   0.531   3.379   0.397
  858SOL     OW 2572   1.723   2.258   1.354
  858SOL    HW1 2573   1.794   2.323   1.381
  858SOL    HW2 2574   1.760   2.193   1.288
  859SOL     OW 2575   0.218   3.196   0.310
  859SOL    HW1 2576   0.122   3.195   0.285
  859SOL    HW2 2577   0.230   3.243   0.397
  860SOL     OW 2578   0.116   2.926   1.735
  860SOL    HW1 2579   0.045   2.856   1.747
  860SOL    HW2 2580   0.206   2.885   1.751
  861SOL     OW 2581   0.678   2.080   1.483
  861SOL    HW1 2582   0.764   2.040   1.451
  861SOL    HW2 2583   0.694   2.129   1.569
  862SOL     OW 2584   0.084   2.275   0.045
  862SOL    HW1 2585   0.042   2.190   0.013
  862SOL    HW2 2586   0.115   2.328   5.967
  863SOL     OW 2587   1.430   2.719   1.382
  863SOL    HW1 2588   1.367   2.783   1.338
  863SOL    HW2 2589   1.518   2.722   1.336
  864SOL     OW 2590   0.075   2.106   0.290
  864SOL    HW1 2591   0.098   2.181   0.228
  864SOL    HW2 2592   0.140   2.031   0.277
  865SOL     OW 2593   1.131   3.233   0.142
  865SOL    HW1 2594   1.061   3.162   0.133
  865SOL    HW2 2595   1.193   3.209   0.217
  866SOL     OW 2596   0.630   2.676   1.431
  866SOL    HW1 2597   0.679   2.760   1.404
  866SOL    HW2 2598   0.696   2.608   1.462
  867SOL     OW 2599   1.481   3.652   0.992
  867SOL    HW1 2600   1.476   3.711   0.911
  867SOL    HW2 2601   1.577   3.634   1.015
  868SOL     OW 2602   0.697   2.418   1.709
  868SOL    HW1 2603   0.729   2.480   1.781
  868SOL    HW2 2604   0.721   2.324   1.733
  869SOL     OW 2605   1.477   3.057   1.626
  869SOL    HW1 2606   1.448   3.069   1.721
  869SOL    HW2 2607   1.565   3.103   1.611
  870SOL     OW 2608   0.386   3.560   1.560
  870SOL    HW1 2609   0.303   3.604   1.526
  870SOL    HW2 2610   0.363   3.502   1.638
  871SOL     OW 2611   1.669   2.726   1.244
  871SOL    HW1 2612   1.665   2.646   1.184
  871SOL    HW2 2613   1.663   2.809   1.188
  872SOL     OW 2614   1.207   2.186   0.434
  872SOL    HW1 2615   1.272   2.112   0.416
  872SOL    HW2 2616   1.229   2.229   0.522
  873SOL     OW 2617   0.524   2.608   0.710
  873SOL    HW1 2618   0.584   2.687   0.698
  873SOL    HW2 2619   0.482   2.584   0.623
  874SOL     OW 2620   1.734   2.247   1.656
  874SOL    HW1 2621   1.750   2.222   1.561
  874SOL    HW2 2622   1.660   2.191   1.693
  875SOL     OW 2623   1.744   2.820   1.477
  875SOL    HW1 2624   1.752   2.917   1.455
  875SOL    HW2 2625   1.728   2.767   1.394
  876SOL     OW 2626   0.823   3.272   0.016
  876SOL    HW1 2627   0.844   3.239   0.108
  876SOL    HW2 2628   0.889   3.341   5.989
  877SOL     OW 2629   0.680   3.671   0.940
  877SOL    HW1 2630   0.627   3.756   0.941
  877SOL    HW2 2631   0.763   3.685   0.887
  878SOL     OW 2632   0.874   2.834   0.890
  878SOL    HW1 2633   0.952   2.777   0.917
  878SOL    HW2 2634   0.848   2.894   0.966
  879SOL     OW 2635   1.091   2.869   0.086
  879SOL    HW1 2636   1.033   2.842   0.008
  879SOL    HW2 2637   1.180   2.825   0.077
  880SOL     OW 2638   1.848   3.398   0.876
  880SOL    HW1 2639   1.774   3.395   0.809
  880SOL    HW2 2640   1.821   3.347   0.957
  881SOL     OW 2641   0.235   3.180   1.866
  881SOL    HW1 2642   0.185   3.106   1.820
  881SOL    HW2 2643   0.196   3.194   1.957
  882SOL     OW 2644   0.099   3.093   0.645
  882SOL    HW1 2645   0.082   3.067   0.740
  882SOL    HW2 2646   0.183   3.050   0.613
  883SOL     OW 2647   0.719   3.254   1.620
  883SOL    HW1 2648   0.626   3.233   1.650
  883SOL    HW2 2649   0.756   3.328   1.677
  884SOL     OW 2650   1.818   2.032   1.231
  884SOL    HW1 2651   1.815   1.937   1.264
  884SOL    HW2 2652   1.841   2.031   1.133
  885SOL     OW 2653   0.412   2.279   0.548
  885SOL    HW1 2654   0.445   2.221   0.474
  885SOL    HW2 2655   0.348   2.227   0.605
  886SOL     OW 2656   1.683   3.331   1.092
  886SOL    HW1 2657   1.605   3.312   1.033
  886SOL    HW2 2658   1.686   3.262   1.165
  887SOL     OW 2659   0.297   2.416   1.262
  887SOL    HW1 2660   0.350   2.363   1.328
  887SOL    HW2 2661   0.326   2.392   1.169
  888SOL     OW 2662   0.820   3.428   0.667
  888SOL    HW1 2663   0.846   3.444   0.571
  888SOL    HW2 2664   0.722   3.406   0.671
  889SOL     OW 2665   1.401   2.088   1.126
  889SOL    HW1 2666   1.485   2.056   1.171
  889SOL    HW2 2667   1.349   2.145   1.190
  890SOL     OW 2668   1.040   1.885   1.131
  890SOL    HW1 2669   0.964   1.828   1.102
  890SOL    HW2 2670   1.121   1.827   1.147
  891SOL     OW 2671   0.823   3.178   0.284
  891SOL    HW1 2672   0.773   3.093   0.300
  891SOL    HW2 2673   0.884   3.196   0.360
  892SOL     OW 2674   0.645   3.422   1.283
  892SOL    HW1 2675   0.633   3.500   1.345
  892SOL    HW2 2676   0.740   3.419   1.251
  893SOL     OW 2677   1.363   1.897   0.173
  893SOL    HW1 2678   1.409   1.824   0.123
  893SOL    HW2 2679   1.273   1.866   0.203
  894SOL     OW 2680   1.287   2.293   0.679
  894SOL    HW1 2681   1.254   2.388   0.673
  894SOL    HW2 2682   1.294   2.267   0.775
  895SOL     OW 2683   1.604   2.088   0.901
  895SOL    HW1 2684   1.528   2.096   0.966
  895SOL    HW2 2685   1.600   2.165   0.836
  896SOL     OW 2686   0.008   2.957   0.329
  896SOL    HW1 2687   0.091   2.939   0.276
  896SOL    HW2 2688   0.012   2.907   0.415
  897SOL     OW 2689   0.846   3.522   0.354
  897SOL    HW1 2690   0.772   3.517   0.287
  897SOL    HW2 2691   0.841   3.610   0.403
  898SOL     OW 2692   0.242   2.496   2.009
  898SOL    HW1 2693   0.155   2.510   2.057
  898SOL    HW2 2694   0.224   2.468   1.915
  899SOL     OW 2695   0.219   2.128   2.839
  899SOL    HW1 2696   0.240   2.090   2.929
  899SOL    HW2 2697   0.121   2.146   2.833
  900SOL     OW 2698   0.021   2.213   2.491
  900SOL    HW1 2699   5.953   2.243   2.559
  900SOL    HW2 2700   5.974   2.189   2.406
  901SOL     OW 2701   0.575   3.086   3.100
  901SOL    HW1 2702   0.483   3.052   3.082
  901SOL    HW2 2703   0.577   3.186   3.087
  902SOL     OW 2704   1.561   3.381   2.574
  902SOL    HW1 2705   1.515   3.341   2.654
  902SOL    HW2 2706   1.495   3.392   2.500
  903SOL     OW 2707   1.126   2.557   2.498
  903SOL    HW1 2708   1.176   2.642   2.514
  903SOL    HW2 2709   1.047   2.553   2.559
  904SOL     OW 2710   1.691   2.490   2.101
  904SOL    HW1 2711   1.708   2.493   2.002
  904SOL    HW2 2712   1.661   2.399   2.127
  905SOL     OW 2713   0.764   3.023   2.915
  905SOL    HW1 2714   0.689   3.037   2.981
  905SOL    HW2 2715   0.788   3.110   2.873
  906SOL     OW 2716   0.847   2.670   3.661
  906SOL    HW1 2717   0.851   2.757   3.711
  906SOL    HW2 2718   0.871   2.685   3.565
  907SOL     OW 2719   0.669   2.853   2.555
  907SOL    HW1 2720   0.744   2.850   2.622
  907SOL    HW2 2721   0.607   2.928   2.578
  908SOL     OW 2722   0.701   3.015   3.682
  908SOL    HW1 2723   0.763   3.093   3.683
  908SOL    HW2 2724   0.611   3.045   3.652
  909SOL     OW 2725   0.361   3.279   2.882
  909SOL    HW1 2726   0.269   3.255   2.850
  909SOL    HW2 2727   0.398   3.352   2.824
  910SOL     OW 2728   1.475   3.391   3.207
  910SOL    HW1 2729   1.538   3.467   3.221
  910SOL    HW2 2730   1.398   3.399   3.270
  911SOL     OW 2731   0.403   2.277   3.330
  911SOL    HW1 2732   0.487   2.227   3.307
  911SOL    HW2 2733   0.333   2.213   3.358
  912SOL     OW 2734   1.667   2.335   2.632
  912SOL    HW1 2735   1.597   2.372   2.571
  912SOL    HW2 2736   1.698   2.407   2.694
  913SOL     OW 2737   0.280   3.555   2.354
  913SOL    HW1 2738   0.297   3.644   2.396
  913SOL    HW2 2739   0.324   3.551   2.265
  914SOL     OW 2740   1.098   3.203   3.556
  914SOL    HW1 2741   1.156   3.208   3.637
  914SOL    HW2 2742   1.036   3.124   3.564
  915SOL     OW 2743   0.237   3.315   2.451
  915SOL    HW1 2744   0.259   3.409   2.426
  915SOL    HW2 2745   0.139   3.306   2.467
  916SOL     OW 2746   0.264   2.941   2.773
  916SOL    HW1 2747   0.249   2.847   2.803
  916SOL    HW2 2748   0.216   3.004   2.834
  917SOL     OW 2749   0.635   3.633   3.311
  917SOL    HW1 2750   0.550   3.599   3.350
  917SOL    HW2 2751   0.642   3.732   3.327
  918SOL     OW 2752   0.586   2.819   2.019
  918SOL    HW1 2753   0.611   2.883   1.947
  918SOL    HW2 2754   0.625   2.849   2.106
  919SOL     OW 2755   1.649   2.006   3.346
  919SOL    HW1 2756   1.650   2.094   3.298
  919SOL    HW2 2757   1.592   2.013   3.428
  920SOL     OW 2758   0.126   2.480   2.443
  920SOL    HW1 2759   0.094   2.386   2.428
  920SOL    HW2 2760   0.054   2.533   2.487
  921SOL     OW 2761   1.865   3.602   2.205
  921SOL    HW1 2762   1.924   3.571   2.280
  921SOL    HW2 2763   1.875   3.700   2.192
  922SOL     OW 2764   0.045   3.447   2.024
  922SOL    HW1 2765   0.020   3.350   2.023
  922SOL    HW2 2766   0.016   3.487   2.111
  923SOL     OW 2767   1.676   2.797   2.496
  923SOL    HW1 2768   1.756   2.746   2.466
  923SOL    HW2 2769   1.656   2.870   2.430
  924SOL     OW 2770   1.646   3.027   2.347
  924SOL    HW1 2771   1.730   3.004   2.297
  924SOL    HW2 2772   1.670   3.062   2.438
  925SOL     OW 2773   0.098   2.629   3.556
  925SOL    HW1 2774   0.178   2.646   3.614
  925SOL    HW2 2775   0.112   2.672   3.467
  926SOL     OW 2776   0.595   3.253   2.584
  926SOL    HW1 2777   0.543   3.169   2.597
  926SOL    HW2 2778   0.586   3.283   2.488
  927SOL     OW 2779   1.292   3.083   3.308
  927SOL    HW1 2780   1.307   3.023   3.229
  927SOL    HW2 2781   1.361   3.064   3.378
  928SOL     OW 2782   0.817   1.840   2.319
  928SOL    HW1 2783   0.861   1.929   2.330
  928SOL    HW2 2784   0.720   1.847   2.341
  929SOL     OW 2785   0.221   2.835   3.089
  929SOL    HW1 2786   0.305   2.781   3.079
  929SOL    HW2 2787   0.153   2.803   3.023
  930SOL     OW 2788   1.574   2.825   2.054
  930SOL    HW1 2789   1.496   2.775   2.091
  930SOL    HW2 2790   1.591   2.907   2.109
  931SOL     OW 2791   1.208   3.678   3.486
  931SOL    HW1 2792   1.172   3.725   3.405
  931SOL    HW2 2793   1.233   3.584   3.461
  932SOL     OW 2794   0.310   2.108   3.691
  932SOL    HW1 2795   0.374   2.182   3.675
  932SOL    HW2 2796   0.223   2.145   3.722
  933SOL     OW 2797   1.466   3.274   2.793
  933SOL    HW1 2798   1.406   3.296   2.869
  933SOL    HW2 2799   1.472   3.174   2.783
  934SOL     OW 2800   1.648   3.618   2.452
  934SOL    HW1 2801   1.613   3.591   2.362
  934SOL    HW2 2802   1.642   3.540   2.515
  935SOL     OW 2803   0.629   2.560   2.147
  935SOL    HW1 2804   0.640   2.646   2.097
  935SOL    HW2 2805   0.555   2.569   2.213
  936SOL     OW 2806   1.301   2.230   2.790
  936SOL    HW1 2807   1.204   2.205   2.787
  936SOL    HW2 2808   1.346   2.183   2.867
  937SOL     OW 2809   1.593   3.534   2.190
  937SOL    HW1 2810   1.690   3.556   2.202
  937SOL    HW2 2811   1.573   3.522   2.093
  938SOL     OW 2812   0.804   2.477   3.326
  938SOL    HW1 2813   0.772   2.441   3.414
  938SOL    HW2 2814   0.764   2.424   3.251
  939SOL     OW 2815   1.389   2.390   3.554
  939SOL    HW1 2816   1.365   2.423   3.646
  939SOL    HW2 2817   1.459   2.319   3.562
  940SOL     OW 2818   0.991   2.739   3.421
  940SOL    HW1 2819   1.043   2.662   3.386
  940SOL    HW2 2820   0.938   2.780   3.347
  941SOL     OW 2821   0.986   2.230   3.103
  941SOL    HW1 2822   0.907   2.287   3.124
  941SOL    HW2 2823   0.979   2.196   3.009
  942SOL     OW 2824   1.067   2.554   2.225
  942SOL    HW1 2825   1.083   2.561   2.323
  942SOL    HW2 2826   0.984   2.501   2.209
  943SOL     OW 2827   0.040   2.664   2.636
  943SOL    HW1 2828   0.137   2.639   2.642
  943SOL    HW2 2829   0.032   2.759   2.608
  944SOL     OW 2830   0.140   3.701   3.446
  944SOL    HW1 2831   0.152   3.687   3.545
  944SOL    HW2 2832   0.043   3.701   3.424
  945SOL     OW 2833   0.882   2.188   2.024
  945SOL    HW1 2834   0.928   2.248   1.959
  945SOL    HW2 2835   0.912   2.093   2.009
  946SOL     OW 2836   1.713   2.470   3.696
  946SOL    HW1 2837   1.677   2.558   3.664
  946SOL    HW2 2838   1.722   2.408   3.618
  947SOL     OW 2839   1.374   3.028   2.427
  947SOL    HW1 2840   1.460   3.019   2.378
  947SOL    HW2 2841   1.305   3.067   2.367
  948SOL     OW 2842   0.514   2.032   2.790
  948SOL    HW1 2843   0.534   2.063   2.883
  948SOL    HW2 2844   0.522   2.109   2.727
  949SOL     OW 2845   1.036   3.345   2.308
  949SOL    HW1 2846   0.966   3.397   2.258
  949SOL    HW2 2847   1.060   3.394   2.392
  950SOL     OW 2848   0.347   3.678   2.739
  950SOL    HW1 2849   0.401   3.594   2.734
  950SOL    HW2 2850   0.407   3.755   2.759
  951SOL     OW 2851   1.812   2.923   2.762
  951SOL    HW1 2852   1.777   2.970   2.682
  951SOL    HW2 2853   1.744   2.926   2.835
  952SOL     OW 2854   1.255   3.414   3.391
  952SOL    HW1 2855   1.272   3.320   3.419
  952SOL    HW2 2856   1.157   3.428   3.377
  953SOL     OW 2857   0.311   2.826   2.126
  953SOL    HW1 2858   0.410   2.837   2.112
  953SOL    HW2 2859   0.282   2.740   2.084
  954SOL     OW 2860   1.458   2.596   2.595
  954SOL    HW1 2861   1.450   2.543   2.679
  954SOL    HW2 2862   1.546   2.642   2.592
  955SOL     OW 2863   0.480   3.143   3.621
  955SOL    HW1 2864   0.443   3.149   3.528
  955SOL    HW2 2865   0.404   3.147   3.686
  956SOL     OW 2866   1.181   3.618   2.090
  956SOL    HW1 2867   1.093   3.590   2.128
  956SOL    HW2 2868   1.194   3.574   2.001
  957SOL     OW 2869   0.198   2.097   3.348
  957SOL    HW1 2870   0.117   2.150   3.323
  957SOL    HW2 2871   0.169   2.011   3.390
  958SOL     OW 2872   1.591   3.231   1.994
  958SOL    HW1 2873   1.584   3.327   1.966
  958SOL    HW2 2874   1.527   3.176   1.942
  959SOL     OW 2875   0.441   3.605   2.154
  959SOL    HW1 2876   0.491   3.670   2.212
  959SOL    HW2 2877   0.506   3.549   2.103
  960SOL     OW 2878   1.383   1.988   2.286
  960SOL    HW1 2879   1.379   1.973   2.187
  960SOL    HW2 2880   1.478   2.004   2.313
  961SOL     OW 2881   0.232   3.652   3.068
  961SOL    HW1 2882   0.289   3.573   3.091
  961SOL    HW2 2883   0.193   3.639   2.977
  962SOL     OW 2884   0.937   3.575   2.758
  962SOL    HW1 2885   0.987   3.509   2.814
  962SOL    HW2 2886   0.888   3.526   2.685
  963SOL     OW 2887   0.383   2.558   2.326
  963SOL    HW1 2888   0.399   2.460   2.337
  963SOL    HW2 2889   0.287   2.579   2.348
  964SOL     OW 2890   1.512   2.113   3.605
  964SOL    HW1 2891   1.518   2.138   3.702
  964SOL    HW2 2892   1.435   2.051   3.591
  965SOL     OW 2893   0.625   1.956   1.937
  965SOL    HW1 2894   0.721   1.930   1.924
  965SOL    HW2 2895   0.569   1.913   1.866
  966SOL     OW 2896   0.744   2.141   3.618
  966SOL    HW1 2897   0.837   2.104   3.623
  966SOL    HW2 2898   0.693   2.116   3.701
  967SOL     OW 2899   0.914   3.398   3.056
  967SOL    HW1 2900   0.872   3.351   2.979
  967SOL    HW2 2901   0.987   3.341   3.094
  968SOL     OW 2902   1.344   2.464   3.303
  968SOL    HW1 2903   1.372   2.443   3.396
  968SOL    HW2 2904   1.379   2.554   3.277
  969SOL     OW 2905   0.775   3.260   2.787
  969SOL    HW1 2906   0.860   3.290   2.744
  969SOL    HW2 2907   0.707   3.239   2.716
  970SOL     OW 2908   0.920   2.372   2.765
  970SOL    HW1 2909   0.883   2.352   2.674
  970SOL    HW2 2910   0.942   2.286   2.811
  971SOL     OW 2911   0.558   1.922   2.345
  971SOL    HW1 2912   0.480   1.924   2.408
  971SOL    HW2 2913   0.558   2.005   2.290
  972SOL     OW 2914   1.406   3.054   1.879
  972SOL    HW1 2915   1.439   2.962   1.903
  972SOL    HW2 2916   1.347   3.088   1.953
  973SOL     OW 2917   0.262   1.897   2.044
  973SOL    HW1 2918   0.301   1.967   1.984
  973SOL    HW2 2919   0.335   1.840   2.081
  974SOL     OW 2920   0.943   2.084   2.332
  974SOL    HW1 2921   0.895   2.131   2.258
  974SOL    HW2 2922   1.038   2.116   2.335
  975SOL     OW 2923   1.090   2.518   3.304
  975SOL    HW1 2924   1.020   2.448   3.321
  975SOL    HW2 2925   1.180   2.474   3.299
  976SOL     OW 2926   1.199   3.418   2.658
  976SOL    HW1 2927   1.227   3.457   2.570
  976SOL    HW2 2928   1.277   3.416   2.720
  977SOL     OW 2929   0.463   3.026   2.617
  977SOL    HW1 2930   0.384   2.998   2.672
  977SOL    HW2 2931   0.436   3.031   2.521
  978SOL     OW 2932   1.292   3.656   2.440
  978SOL    HW1 2933   1.325   3.723   2.373
  978SOL    HW2 2934   1.241   3.703   2.512
  979SOL     OW 2935   1.023   2.387   1.812
  979SOL    HW1 2936   0.971   2.472   1.806
  979SOL    HW2 2937   1.084   2.391   1.891
  980SOL     OW 2938   0.089   2.407   3.294
  980SOL    HW1 2939   0.164   2.413   3.228
  980SOL    HW2 2940   0.086   2.490   3.349
  981SOL     OW 2941   0.553   2.106   3.053
  981SOL    HW1 2942   0.614   2.041   3.097
  981SOL    HW2 2943   0.458   2.082   3.073
  982SOL     OW 2944   0.858   2.285   2.519
  982SOL    HW1 2945   0.797   2.329   2.454
  982SOL    HW2 2946   0.905   2.208   2.475
  983SOL     OW 2947   0.976   1.937   2.612
  983SOL    HW1 2948   0.937   1.907   2.524
  983SOL    HW2 2949   0.996   1.857   2.668
  984SOL     OW 2950   1.449   2.996   2.750
  984SOL    HW1 2951   1.358   2.957   2.767
  984SOL    HW2 2952   1.473   2.984   2.654
  985SOL     OW 2953   1.465   2.449   2.820
  985SOL    HW1 2954   1.416   2.362   2.813
  985SOL    HW2 2955   1.536   2.442   2.890
  986SOL     OW 2956   1.893   2.672   2.223
  986SOL    HW1 2957   1.924   2.614   2.299
  986SOL    HW2 2958   1.825   2.624   2.169
  987SOL     OW 2959   0.495   3.254   2.064
  987SOL    HW1 2960   0.405   3.231   2.101
  987SOL    HW2 2961   0.494   3.246   1.965
  988SOL     OW 2962   1.712   3.152   2.576
  988SOL    HW1 2963   1.800   3.167   2.531
  988SOL    HW2 2964   1.658   3.236   2.571
  989SOL     OW 2965   1.380   2.453   1.957
  989SOL    HW1 2966   1.307   2.410   2.010
  989SOL    HW2 2967   1.469   2.421   1.990
  990SOL     OW 2968   0.517   2.116   2.168
  990SOL    HW1 2969   0.539   2.055   2.093
  990SOL    HW2 2970   0.508   2.210   2.133
  991SOL     OW 2971   1.734   3.141   3.431
  991SOL    HW1 2972   1.814   3.084   3.446
  991SOL    HW2 2973   1.756   3.236   3.450
  992SOL     OW 2974   1.056   3.203   3.225
  992SOL    HW1 2975   0.963   3.182   3.256
  992SOL    HW2 2976   1.122   3.161   3.288
  993SOL     OW 2977   1.601   3.526   3.512
  993SOL    HW1 2978   1.594   3.547   3.415
  993SOL    HW2 2979   1.684   3.472   3.529
  994SOL     OW 2980   1.060   3.034   2.990
  994SOL    HW1 2981   1.067   3.100   3.065
  994SOL    HW2 2982   1.041   3.083   2.905
  995SOL     OW 2983   1.636   2.955   2.960
  995SOL    HW1 2984   1.631   3.030   3.025
  995SOL    HW2 2985   1.566   2.966   2.890
  996SOL     OW 2986   0.912   1.945   3.278
  996SOL    HW1 2987   0.933   1.914   3.185
  996SOL    HW2 2988   0.989   1.999   3.313
  997SOL     OW 2989   0.941   2.965   3.573
  997SOL    HW1 2990   0.842   2.964   3.585
  997SOL    HW2 2991   0.967   2.901   3.502
  998SOL     OW 2992   0.721   2.923   2.272
  998SOL    HW1 2993   0.718   2.900   2.370
  998SOL    HW2 2994   0.800   2.877   2.230
  999SOL     OW 2995   0.421   2.668   3.100
  999SOL    HW1 2996   0.498   2.673   3.164
  999SOL    HW2 2997   0.373   2.581   3.113
 1000SOL     OW 2998   1.264   2.280   3.136
 1000SOL    HW1 2999   1.296   2.357   3.190
 1000SOL    HW2 3000   1.164   2.277   3.137
 1001SOL     OW 3001   0.090   3.407   3.208
 1001SOL    HW1 3002   0.036   3.481   3.168
 1001SOL    HW2 3003   0.186   3.434   3.215
 1002SOL     OW 3004   0.396   3.026   2.339
 1002SOL    HW1 3005   0.361   3.080   2.263
 1002SOL    HW2 3006   0.373   2.930   2.326
 1003SOL     OW 3007   0.586   2.393   2.716
 1003SOL    HW1 3008   0.577   2.466   2.648
 1003SOL    HW2 3009   0.652   2.421   2.785
 1004SOL     OW 3010   1.257   3.220   2.229
 1004SOL    HW1 3011   1.318   3.284   2.276
 1004SOL    HW2 3012   1.162   3.246   2.248
 1005SOL     OW 3013   1.312   3.315   3.007
 1005SOL    HW1 3014   1.369   3.340   3.086
 1005SOL    HW2 3015   1.252   3.240   3.033
 1006SOL     OW 3016   1.635   2.505   2.375
 1006SOL    HW1 3017   1.549   2.529   2.418
 1006SOL    HW2 3018   1.639   2.543   2.283
 1007SOL     OW 3019   0.363   3.417   3.126
 1007SOL    HW1 3020   0.366   3.359   3.044
 1007SOL    HW2 3021   0.454   3.422   3.167
 1008SOL     OW 3022   0.417   2.612   3.437
 1008SOL    HW1 3023   0.490   2.655   3.383
 1008SOL    HW2 3024   0.453   2.534   3.486
 1009SOL     OW 3025   1.628   2.681   3.542
 1009SOL    HW1 3026   1.529   2.687   3.533
 1009SOL    HW2 3027   1.672   2.723   3.462
 1010SOL     OW 3028   1.004   2.013   3.629
 1010SOL    HW1 3029   1.079   2.062   3.585
 1010SOL    HW2 3030   0.997   1.921   3.590
 1011SOL     OW 3031   0.446   1.869   3.620
 1011SOL    HW1 3032   0.410   1.811   3.547
 1011SOL    HW2 3033   0.385   1.947   3.634
 1012SOL     OW 3034   0.589   2.718   2.871
 1012SOL    HW1 3035   0.640   2.803   2.875
 1012SOL    HW2 3036   0.525   2.714   2.948
 1013SOL     OW 3037   1.322   2.693   2.922
 1013SOL    HW1 3038   1.245   2.699   2.859
 1013SOL    HW2 3039   1.372   2.607   2.905
 1014SOL     OW 3040   1.189   2.351   2.098
 1014SOL    HW1 3041   1.207   2.276   2.162
 1014SOL    HW2 3042   1.156   2.430   2.149
 1015SOL     OW 3043   0.298   2.047   3.094
 1015SOL    HW1 3044   0.255   2.073   3.181
 1015SOL    HW2 3045   0.279   1.951   3.075
 1016SOL     OW 3046   0.067   3.150   3.147
 1016SOL    HW1 3047   0.108   3.098   3.222
 1016SOL    HW2 3048   0.078   3.248   3.164
 1017SOL     OW 3049   0.748   2.502   2.926
 1017SOL    HW1 3050   0.819   2.473   2.863
 1017SOL    HW2 3051   0.707   2.588   2.894
 1018SOL     OW 3052   1.781   2.829   3.701
 1018SOL    HW1 3053   1.732   2.762   3.646
 1018SOL    HW2 3054   1.733   2.842   3.788
 1019SOL     OW 3055   0.317   1.912   2.487
 1019SOL    HW1 3056   0.293   2.007   2.504
 1019SOL    HW2 3057   0.333   1.865   2.574
 1020SOL     OW 3058   1.594   2.268   2.240
 1020SOL    HW1 3059   1.622   2.187   2.292
 1020SOL    HW2 3060   1.584   2.346   2.301
 1021SOL     OW 3061   1.037   2.640   2.818
 1021SOL    HW1 3062   1.038   2.649   2.917
 1021SOL    HW2 3063   0.995   2.553   2.793
 1022SOL     OW 3064   0.994   3.450   3.587
 1022SOL    HW1 3065   0.950   3.483   3.503
 1022SOL    HW2 3066   1.022   3.355   3.575
 1023SOL     OW 3067   1.839   3.389   3.494
 1023SOL    HW1 3068   1.868   3.414   3.401
 1023SOL    HW2 3069   1.916   3.397   3.556
 1024SOL     OW 3070   0.346   2.803   3.649
 1024SOL    HW1 3071   0.417   2.816   3.718
 1024SOL    HW2 3072   0.383   2.745   3.575
 1025SOL     OW 3073   1.544   2.140   2.006
 1025SOL    HW1 3074   1.500   2.050   2.013
 1025SOL    HW2 3075   1.556   2.178   2.098
 1026SOL     OW 3076   1.308   2.708   1.915
 1026SOL    HW1 3077   1.329   2.610   1.922
 1026SOL    HW2 3078   1.330   2.739   1.822
 1027SOL     OW 3079   1.060   3.214   2.770
 1027SOL    HW1 3080   1.055   3.143   2.699
 1027SOL    HW2 3081   1.109   3.293   2.734
 1028SOL     OW 3082   0.299   2.649   2.796
 1028SOL    HW1 3083   0.393   2.679   2.780
 1028SOL    HW2 3084   0.299   2.553   2.824
 1029SOL     OW 3085   0.367   2.355   2.857
 1029SOL    HW1 3086   0.330   2.262   2.858
 1029SOL    HW2 3087   0.443   2.359   2.792
 1030SOL     OW 3088   1.188   2.213   3.562
 1030SOL    HW1 3089   1.111   2.265   3.600
 1030SOL    HW2 3090   1.262   2.277   3.540
 1031SOL     OW 3091   1.141   2.063   3.351
 1031SOL    HW1 3092   1.162   2.125   3.427
 1031SOL    HW2 3093   1.188   2.094   3.268
 1032SOL     OW 3094   5.976   3.187   2.057
 1032SOL    HW1 3095   5.880   3.182   2.031
 1032SOL    HW2 3096   0.004   3.100   2.099
 1033SOL     OW 3097   0.097   3.656   2.826
 1033SOL    HW1 3098   0.048   3.587   2.771
 1033SOL    HW2 3099   0.186   3.674   2.784
 1034SOL     OW 3100   0.493   3.465   2.735
 1034SOL    HW1 3101   0.574   3.507   2.775
 1034SOL    HW2 3102   0.520   3.383   2.684
 1035SOL     OW 3103   0.986   2.652   3.078
 1035SOL    HW1 3104   1.045   2.649   3.159
 1035SOL    HW2 3105   0.897   2.613   3.100
 1036SOL     OW 3106   5.998   2.399   3.034
 1036SOL    HW1 3107   0.034   2.318   2.988
 1036SOL    HW2 3108   0.025   2.398   3.130
 1037SOL     OW 3109   0.231   2.387   3.585
 1037SOL    HW1 3110   0.286   2.359   3.507
 1037SOL    HW2 3111   0.171   2.462   3.559
 1038SOL     OW 3112   1.379   2.780   3.513
 1038SOL    HW1 3113   1.407   2.876   3.519
 1038SOL    HW2 3114   1.371   2.754   3.417
 1039SOL     OW 3115   0.851   2.417   2.175
 1039SOL    HW1 3116   0.844   2.332   2.123
 1039SOL    HW2 3117   0.764   2.466   2.171
 1040SOL     OW 3118   1.635   2.444   3.034
 1040SOL    HW1 3119   1.619   2.418   3.129
 1040SOL    HW2 3120   1.732   2.431   3.012
 1041SOL     OW 3121   0.281   3.434   3.629
 1041SOL    HW1 3122   0.220   3.493   3.682
 1041SOL    HW2 3123   0.257   3.338   3.645
 1042SOL     OW 3124   0.691   2.340   3.130
 1042SOL    HW1 3125   0.648   2.252   3.111
 1042SOL    HW2 3126   0.702   2.391   3.044
 1043SOL     OW 3127   0.908   3.523   3.353
 1043SOL    HW1 3128   0.911   3.471   3.268
 1043SOL    HW2 3129   0.893   3.619   3.333
 1044SOL     OW 3130   0.492   2.355   2.048
 1044SOL    HW1 3131   0.559   2.422   2.079
 1044SOL    HW2 3132   0.402   2.398   2.041
 1045SOL     OW 3133   0.171   2.999   3.336
 1045SOL    HW1 3134   0.124   2.981   3.422
 1045SOL    HW2 3135   0.158   2.921   3.274
 1046SOL     OW 3136   1.293   2.895   3.093
 1046SOL    HW1 3137   1.313   2.823   3.027
 1046SOL    HW2 3138   1.201   2.931   3.076
 1047SOL     OW 3139   1.309   2.766   2.170
 1047SOL    HW1 3140   1.244   2.706   2.217
 1047SOL    HW2 3141   1.305   2.748   2.071
 1048SOL     OW 3142   1.805   3.559   3.028
 1048SOL    HW1 3143   1.866   3.586   2.954
 1048SOL    HW2 3144   1.752   3.479   2.999
 1049SOL     OW 3145   1.221   3.581   3.027
 1049SOL    HW1 3146   1.288   3.645   2.988
 1049SOL    HW2 3147   1.250   3.487   3.007
 1050SOL     OW 3148   0.091   3.137   2.880
 1050SOL    HW1 3149   0.092   3.127   2.980
 1050SOL    HW2 3150   0.009   3.092   2.843
 1051SOL     OW 3151   0.701   3.526   3.610
 1051SOL    HW1 3152   0.605   3.551   3.598
 1051SOL    HW2 3153   0.751   3.545   3.525
 1052SOL     OW 3154   1.678   2.031   2.351
 1052SOL    HW1 3155   1.757   2.028   2.291
 1052SOL    HW2 3156   1.669   1.944   2.399
 1053SOL     OW 3157   1.378   3.430   2.338
 1053SOL    HW1 3158   1.451   3.451   2.273
 1053SOL    HW2 3159   1.334   3.515   2.368
 1054SOL     OW 3160   0.123   3.656   3.705
 1054SOL    HW1 3161   0.053   3.591   3.734
 1054SOL    HW2 3162   0.171   3.692   3.785
 1055SOL     OW 3163   1.281   2.778   2.510
 1055SOL    HW1 3164   1.349   2.708   2.532
 1055SOL    HW2 3165   1.325   2.867   2.501
 1056SOL     OW 3166   0.788   3.111   3.269
 1056SOL    HW1 3167   0.767   3.170   3.347
 1056SOL    HW2 3168   0.708   3.106   3.209
 1057SOL     OW 3169   0.642   3.480   2.031
 1057SOL    HW1 3170   0.671   3.494   1.936
 1057SOL    HW2 3171   0.603   3.389   2.041
 1058SOL     OW 3172   1.630   3.602   3.242
 1058SOL    HW1 3173   1.690   3.599   3.162
 1058SOL    HW2 3174   1.620   3.696   3.273
 1059SOL     OW 3175   1.868   2.035   2.813
 1059SOL    HW1 3176   1.882   1.937   2.795
 1059SOL    HW2 3177   1.773   2.059   2.793
 1060SOL     OW 3178   0.268   2.153   2.567
 1060SOL    HW1 3179   0.176   2.181   2.539
 1060SOL    HW2 3180   0.269   2.137   2.666
 1061SOL     OW 3181   1.219   3.468   1.874
 1061SOL    HW1 3182   1.191   3.384   1.922
 1061SOL    HW2 3183   1.162   3.481   1.793
 1062SOL     OW 3184   0.850   2.860   3.228
 1062SOL    HW1 3185   0.898   2.854   3.140
 1062SOL    HW2 3186   0.823   2.955   3.245
 1063SOL     OW 3187   0.909   2.777   2.140
 1063SOL    HW1 3188   0.983   2.823   2.090
 1063SOL    HW2 3189   0.927   2.679   2.142
 1064SOL     OW 3190   1.523   3.495   1.936
 1064SOL    HW1 3191   1.425   3.492   1.954
 1064SOL    HW2 3192   1.539   3.509   1.838
 1065SOL     OW 3193   0.365   3.173   3.389
 1065SOL    HW1 3194   0.339   3.259   3.346
 1065SOL    HW2 3195   0.299   3.102   3.364
 1066SOL     OW 3196   1.623   3.155   3.157
 1066SOL    HW1 3197   1.676   3.136   3.240
 1066SOL    HW2 3198   1.556   3.226   3.177
 1067SOL     OW 3199   1.024   3.010   2.580
 1067SOL    HW1 3200   0.973   2.932   2.616
 1067SOL    HW2 3201   1.080   2.981   2.503
 1068SOL     OW 3202   0.972   2.108   2.835
 1068SOL    HW1 3203   0.964   2.067   2.744
 1068SOL    HW2 3204   0.985   2.036   2.903
 1069SOL     OW 3205   0.602   3.342   2.312
 1069SOL    HW1 3206   0.628   3.266   2.252
 1069SOL    HW2 3207   0.540   3.403   2.263
 1070SOL     OW 3208   1.715   2.255   3.224
 1070SOL    HW1 3209   1.786   2.320   3.251
 1070SOL    HW2 3210   1.749   2.195   3.153
 1071SOL     OW 3211   0.236   3.221   2.168
 1071SOL    HW1 3212   0.140   3.208   2.142
 1071SOL    HW2 3213   0.240   3.274   2.253
 1072SOL     OW 3214   0.114   2.923   3.598
 1072SOL    HW1 3215   0.045   2.852   3.614
 1072SOL    HW2 3216   0.205   2.885   3.612
 1073SOL     OW 3217   0.684   2.076   3.346
 1073SOL    HW1 3218   0.773   2.033   3.328
 1073SOL    HW2 3219   0.690   2.130   3.430
 1074SOL     OW 3220   0.072   2.243   1.894
 1074SOL    HW1 3221   5.974   2.259   1.883
 1074SOL    HW2 3222   0.124   2.299   1.829
 1075SOL     OW 3223   1.431   2.714   3.246
 1075SOL    HW1 3224   1.363   2.773   3.203
 1075SOL    HW2 3225   1.518   2.724   3.198
 1076SOL     OW 3226   0.077   2.059   2.193
 1076SOL    HW1 3227   0.057   2.146   2.148
 1076SOL    HW2 3228   0.149   2.011   2.141
 1077SOL     OW 3229   1.180   3.214   1.979
 1077SOL    HW1 3230   1.137   3.124   1.967
 1077SOL    HW2 3231   1.217   3.221   2.072
 1078SOL     OW 3232   0.631   2.677   3.289
 1078SOL    HW1 3233   0.680   2.761   3.267
 1078SOL    HW2 3234   0.697   2.606   3.316
 1079SOL     OW 3235   1.489   3.662   2.866
 1079SOL    HW1 3236   1.482   3.708   2.777
 1079SOL    HW2 3237   1.581   3.626   2.877
 1080SOL     OW 3238   0.703   2.414   3.566
 1080SOL    HW1 3239   0.730   2.477   3.640
 1080SOL    HW2 3240   0.723   2.321   3.594
 1081SOL     OW 3241   1.476   3.049   3.488
 1081SOL    HW1 3242   1.451   3.065   3.584
 1081SOL    HW2 3243   1.564   3.093   3.469
 1082SOL     OW 3244   0.382   3.557   3.418
 1082SOL    HW1 3245   0.301   3.610   3.393
 1082SOL    HW2 3246   0.360   3.497   3.494
 1083SOL     OW 3247   1.672   2.729   3.095
 1083SOL    HW1 3248   1.666   2.647   3.038
 1083SOL    HW2 3249   1.666   2.810   3.037
 1084SOL     OW 3250   1.217   2.190   2.311
 1084SOL    HW1 3251   1.279   2.113   2.297
 1084SOL    HW2 3252   1.248   2.243   2.390
 1085SOL     OW 3253   0.555   2.588   2.537
 1085SOL    HW1 3254   0.599   2.678   2.533
 1085SOL    HW2 3255   0.488   2.581   2.463
 1086SOL     OW 3256   1.728   2.246   3.515
 1086SOL    HW1 3257   1.747   2.216   3.422
 1086SOL    HW2 3258   1.655   2.190   3.554
 1087SOL     OW 3259   1.746   2.818   3.335
 1087SOL    HW1 3260   1.752   2.916   3.313
 1087SOL    HW2 3261   1.730   2.767   3.250
 1088SOL     OW 3262   0.846   3.270   1.874
 1088SOL    HW1 3263   0.856   3.255   1.972
 1088SOL    HW2 3264   0.905   3.345   1.845
 1089SOL     OW 3265   0.673   3.657   2.818
 1089SOL    HW1 3266   0.625   3.745   2.817
 1089SOL    HW2 3267   0.762   3.666   2.774
 1090SOL     OW 3268   0.864   2.844   2.737
 1090SOL    HW1 3269   0.935   2.777   2.761
 1090SOL    HW2 3270   0.840   2.897   2.818
 1091SOL     OW 3271   1.085   2.891   1.939
 1091SOL    HW1 3272   1.043   2.921   1.854
 1091SOL    HW2 3273   1.151   2.818   1.920
 1092SOL     OW 3274   1.813   3.433   2.713
 1092SOL    HW1 3275   1.733   3.414   2.657
 1092SOL    HW2 3276   1.809   3.380   2.797
 1093SOL     OW 3277   0.231   3.173   3.731
 1093SOL    HW1 3278   0.172   3.109   3.680
 1093SOL    HW2 3279   0.191   3.191   3.821
 1094SOL     OW 3280   0.114   3.071   2.487
 1094SOL    HW1 3281   0.106   3.093   2.584
 1094SOL    HW2 3282   0.197   3.114   2.450
 1095SOL     OW 3283   0.714   3.245   3.480
 1095SOL    HW1 3284   0.622   3.226   3.515
 1095SOL    HW2 3285   0.757   3.314   3.539
 1096SOL     OW 3286   1.810   2.034   3.091
 1096SOL    HW1 3287   1.813   1.941   3.128
 1096SOL    HW2 3288   1.847   2.033   2.998
 1097SOL     OW 3289   0.415   2.294   2.384
 1097SOL    HW1 3290   0.449   2.218   2.329
 1097SOL    HW2 3291   0.352   2.259   2.454
 1098SOL     OW 3292   1.691   3.323   2.955
 1098SOL    HW1 3293   1.615   3.307   2.892
 1098SOL    HW2 3294   1.688   3.256   3.029
 1099SOL     OW 3295   0.300   2.425   3.119
 1099SOL    HW1 3296   0.350   2.367   3.185
 1099SOL    HW2 3297   0.324   2.398   3.026
 1100SOL     OW 3298   0.817   3.435   2.551
 1100SOL    HW1 3299   0.841   3.437   2.454
 1100SOL    HW2 3300   0.720   3.410   2.560
 1101SOL     OW 3301   1.411   2.103   2.990
 1101SOL    HW1 3302   1.491   2.054   3.026
 1101SOL    HW2 3303   1.370   2.158   3.062
 1102SOL     OW 3304   1.014   1.890   3.034
 1102SOL    HW1 3305   0.952   1.836   2.977
 1102SOL    HW2 3306   1.094   1.836   3.057
 1103SOL     OW 3307   0.830   3.148   2.200
 1103SOL    HW1 3308   0.776   3.065   2.214
 1103SOL    HW2 3309   0.877   3.172   2.285
 1104SOL     OW 3310   0.645   3.419   3.142
 1104SOL    HW1 3311   0.633   3.499   3.201
 1104SOL    HW2 3312   0.741   3.413   3.113
 1105SOL     OW 3313   1.377   1.928   2.018
 1105SOL    HW1 3314   1.409   1.890   1.931
 1105SOL    HW2 3315   1.306   1.868   2.056
 1106SOL     OW 3316   1.320   2.310   2.536
 1106SOL    HW1 3317   1.278   2.401   2.531
 1106SOL    HW2 3318   1.318   2.278   2.631
 1107SOL     OW 3319   1.606   2.089   2.763
 1107SOL    HW1 3320   1.538   2.094   2.836
 1107SOL    HW2 3321   1.599   2.170   2.705
 1108SOL     OW 3322   0.078   2.973   2.172
 1108SOL    HW1 3323   0.162   2.926   2.146
 1108SOL    HW2 3324   0.048   2.941   2.261
 1109SOL     OW 3325   0.873   3.498   2.161
 1109SOL    HW1 3326   0.784   3.487   2.116
 1109SOL    HW2 3327   0.872   3.579   2.219
 1110SOL     OW 3328   0.251   2.490   3.870
 1110SOL    HW1 3329   0.166   2.502   3.921
 1110SOL    HW2 3330   0.230   2.467   3.775
 1111SOL     OW 3331   0.214   2.127   4.699
 1111SOL    HW1 3332   0.238   2.086   4.787
 1111SOL    HW2 3333   0.115   2.136   4.692
 1112SOL     OW 3334   0.025   2.218   4.355
 1112SOL    HW1 3335   5.962   2.250   4.426
 1112SOL    HW2 3336   5.973   2.196   4.272
 1113SOL     OW 3337   0.568   3.090   4.958
 1113SOL    HW1 3338   0.473   3.063   4.944
 1113SOL    HW2 3339   0.576   3.189   4.945
 1114SOL     OW 3340   1.562   3.380   4.437
 1114SOL    HW1 3341   1.516   3.344   4.518
 1114SOL    HW2 3342   1.495   3.391   4.363
 1115SOL     OW 3343   1.122   2.560   4.358
 1115SOL    HW1 3344   1.173   2.645   4.372
 1115SOL    HW2 3345   1.041   2.560   4.417
 1116SOL     OW 3346   1.697   2.493   3.961
 1116SOL    HW1 3347   1.712   2.492   3.862
 1116SOL    HW2 3348   1.660   2.404   3.989
 1117SOL     OW 3349   0.771   3.023   4.779
 1117SOL    HW1 3350   0.692   3.034   4.839
 1117SOL    HW2 3351   0.793   3.110   4.735
 1118SOL     OW 3352   0.820   2.642   5.539
 1118SOL    HW1 3353   0.792   2.699   5.617
 1118SOL    HW2 3354   0.853   2.700   5.465
 1119SOL     OW 3355   0.667   2.850   4.417
 1119SOL    HW1 3356   0.737   2.849   4.488
 1119SOL    HW2 3357   0.604   2.926   4.433
 1120SOL     OW 3358   0.713   3.014   5.535
 1120SOL    HW1 3359   0.769   3.096   5.548
 1120SOL    HW2 3360   0.619   3.040   5.516
 1121SOL     OW 3361   0.359   3.276   4.747
 1121SOL    HW1 3362   0.271   3.247   4.712
 1121SOL    HW2 3363   0.397   3.347   4.686
 1122SOL     OW 3364   1.489   3.378   5.083
 1122SOL    HW1 3365   1.545   3.460   5.090
 1122SOL    HW2 3366   1.413   3.384   5.147
 1123SOL     OW 3367   0.415   2.265   5.232
 1123SOL    HW1 3368   0.495   2.214   5.201
 1123SOL    HW2 3369   0.338   2.201   5.244
 1124SOL     OW 3370   1.661   2.331   4.489
 1124SOL    HW1 3371   1.597   2.368   4.421
 1124SOL    HW2 3372   1.694   2.405   4.547
 1125SOL     OW 3373   0.280   3.554   4.218
 1125SOL    HW1 3374   0.296   3.643   4.261
 1125SOL    HW2 3375   0.326   3.551   4.129
 1126SOL     OW 3376   1.128   3.209   5.433
 1126SOL    HW1 3377   1.200   3.188   5.499
 1126SOL    HW2 3378   1.075   3.126   5.415
 1127SOL     OW 3379   0.236   3.314   4.314
 1127SOL    HW1 3380   0.259   3.408   4.290
 1127SOL    HW2 3381   0.138   3.307   4.332
 1128SOL     OW 3382   0.259   2.942   4.626
 1128SOL    HW1 3383   0.253   2.846   4.655
 1128SOL    HW2 3384   0.209   3.000   4.691
 1129SOL     OW 3385   0.634   3.627   5.182
 1129SOL    HW1 3386   0.544   3.595   5.213
 1129SOL    HW2 3387   0.641   3.725   5.199
 1130SOL     OW 3388   0.585   2.818   3.881
 1130SOL    HW1 3389   0.611   2.883   3.810
 1130SOL    HW2 3390   0.623   2.847   3.969
 1131SOL     OW 3391   1.645   2.014   5.200
 1131SOL    HW1 3392   1.652   2.106   5.161
 1131SOL    HW2 3393   1.595   2.018   5.287
 1132SOL     OW 3394   0.123   2.481   4.299
 1132SOL    HW1 3395   0.095   2.386   4.293
 1132SOL    HW2 3396   0.052   2.535   4.344
 1133SOL     OW 3397   1.871   3.600   4.070
 1133SOL    HW1 3398   1.926   3.576   4.150
 1133SOL    HW2 3399   1.878   3.698   4.053
 1134SOL     OW 3400   0.042   3.446   3.884
 1134SOL    HW1 3401   0.011   3.351   3.881
 1134SOL    HW2 3402   0.020   3.486   3.973
 1135SOL     OW 3403   1.674   2.795   4.366
 1135SOL    HW1 3404   1.754   2.748   4.329
 1135SOL    HW2 3405   1.646   2.868   4.304
 1136SOL     OW 3406   1.648   3.026   4.206
 1136SOL    HW1 3407   1.731   3.000   4.157
 1136SOL    HW2 3408   1.672   3.062   4.296
 1137SOL     OW 3409   0.088   2.650   5.412
 1137SOL    HW1 3410   0.173   2.646   5.465
 1137SOL    HW2 3411   0.108   2.677   5.318
 1138SOL     OW 3412   0.587   3.253   4.448
 1138SOL    HW1 3413   0.538   3.166   4.461
 1138SOL    HW2 3414   0.582   3.280   4.352
 1139SOL     OW 3415   1.285   3.084   5.171
 1139SOL    HW1 3416   1.307   3.026   5.093
 1139SOL    HW2 3417   1.343   3.060   5.248
 1140SOL     OW 3418   0.820   1.853   4.170
 1140SOL    HW1 3419   0.872   1.937   4.184
 1140SOL    HW2 3420   0.726   1.867   4.202
 1141SOL     OW 3421   0.226   2.833   4.939
 1141SOL    HW1 3422   0.309   2.779   4.924
 1141SOL    HW2 3423   0.158   2.808   4.870
 1142SOL     OW 3424   1.565   2.833   3.918
 1142SOL    HW1 3425   1.489   2.779   3.955
 1142SOL    HW2 3426   1.576   2.917   3.972
 1143SOL     OW 3427   1.208   3.674   5.350
 1143SOL    HW1 3428   1.165   3.735   5.283
 1143SOL    HW2 3429   1.216   3.582   5.311
 1144SOL     OW 3430   0.313   2.110   5.546
 1144SOL    HW1 3431   0.369   2.184   5.510
 1144SOL    HW2 3432   0.225   2.147   5.576
 1145SOL     OW 3433   1.463   3.279   4.652
 1145SOL    HW1 3434   1.404   3.294   4.731
 1145SOL    HW2 3435   1.478   3.180   4.641
 1146SOL     OW 3436   1.650   3.617   4.313
 1146SOL    HW1 3437   1.608   3.594   4.226
 1146SOL    HW2 3438   1.643   3.539   4.375
 1147SOL     OW 3439   0.631   2.571   4.013
 1147SOL    HW1 3440   0.638   2.653   3.956
 1147SOL    HW2 3441   0.556   2.583   4.078
 1148SOL     OW 3442   1.304   2.235   4.658
 1148SOL    HW1 3443   1.208   2.209   4.655
 1148SOL    HW2 3444   1.349   2.190   4.735
 1149SOL     OW 3445   1.589   3.534   4.054
 1149SOL    HW1 3446   1.686   3.554   4.067
 1149SOL    HW2 3447   1.571   3.519   3.956
 1150SOL     OW 3448   0.799   2.476   5.178
 1150SOL    HW1 3449   0.768   2.448   5.269
 1150SOL    HW2 3450   0.755   2.419   5.109
 1151SOL     OW 3451   1.399   2.377   5.410
 1151SOL    HW1 3452   1.391   2.409   5.504
 1151SOL    HW2 3453   1.449   2.291   5.408
 1152SOL     OW 3454   0.988   2.744   5.284
 1152SOL    HW1 3455   1.036   2.666   5.245
 1152SOL    HW2 3456   0.930   2.785   5.214
 1153SOL     OW 3457   0.990   2.230   4.970
 1153SOL    HW1 3458   0.913   2.290   4.992
 1153SOL    HW2 3459   0.980   2.195   4.877
 1154SOL     OW 3460   1.054   2.554   4.088
 1154SOL    HW1 3461   1.075   2.559   4.186
 1154SOL    HW2 3462   0.972   2.499   4.074
 1155SOL     OW 3463   0.041   2.665   4.498
 1155SOL    HW1 3464   0.138   2.644   4.503
 1155SOL    HW2 3465   0.029   2.761   4.472
 1156SOL     OW 3466   0.132   3.708   5.304
 1156SOL    HW1 3467   0.152   3.692   5.400
 1156SOL    HW2 3468   0.034   3.702   5.288
 1157SOL     OW 3469   0.881   2.195   3.875
 1157SOL    HW1 3470   0.929   2.251   3.808
 1157SOL    HW2 3471   0.912   2.100   3.868
 1158SOL     OW 3472   1.711   2.481   5.571
 1158SOL    HW1 3473   1.682   2.564   5.524
 1158SOL    HW2 3474   1.723   2.408   5.504
 1159SOL     OW 3475   1.378   3.021   4.284
 1159SOL    HW1 3476   1.463   3.014   4.232
 1159SOL    HW2 3477   1.307   3.064   4.227
 1160SOL     OW 3478   0.521   2.029   4.653
 1160SOL    HW1 3479   0.540   2.062   4.746
 1160SOL    HW2 3480   0.541   2.101   4.587
 1161SOL     OW 3481   1.032   3.343   4.176
 1161SOL    HW1 3482   0.965   3.396   4.124
 1161SOL    HW2 3483   1.056   3.393   4.259
 1162SOL     OW 3484   0.345   3.678   4.602
 1162SOL    HW1 3485   0.398   3.593   4.602
 1162SOL    HW2 3486   0.405   3.754   4.627
 1163SOL     OW 3487   1.809   2.922   4.626
 1163SOL    HW1 3488   1.766   2.951   4.540
 1163SOL    HW2 3489   1.740   2.921   4.699
 1164SOL     OW 3490   1.256   3.418   5.234
 1164SOL    HW1 3491   1.274   3.330   5.277
 1164SOL    HW2 3492   1.159   3.423   5.207
 1165SOL     OW 3493   0.312   2.825   3.987
 1165SOL    HW1 3494   0.410   2.839   3.972
 1165SOL    HW2 3495   0.283   2.741   3.941
 1166SOL     OW 3496   1.457   2.598   4.450
 1166SOL    HW1 3497   1.449   2.543   4.533
 1166SOL    HW2 3498   1.546   2.644   4.449
 1167SOL     OW 3499   0.471   3.127   5.498
 1167SOL    HW1 3500   0.450   3.140   5.402
 1167SOL    HW2 3501   0.388   3.137   5.553
 1168SOL     OW 3502   1.178   3.616   3.951
 1168SOL    HW1 3503   1.088   3.591   3.987
 1168SOL    HW2 3504   1.193   3.571   3.863
 1169SOL     OW 3505   0.192   2.111   5.244
 1169SOL    HW1 3506   0.115   2.156   5.200
 1169SOL    HW2 3507   0.167   2.016   5.265
 1170SOL     OW 3508   1.589   3.230   3.857
 1170SOL    HW1 3509   1.581   3.325   3.828
 1170SOL    HW2 3510   1.524   3.174   3.805
 1171SOL     OW 3511   0.438   3.604   4.014
 1171SOL    HW1 3512   0.487   3.669   4.072
 1171SOL    HW2 3513   0.504   3.548   3.964
 1172SOL     OW 3514   1.377   1.993   4.147
 1172SOL    HW1 3515   1.375   1.978   4.048
 1172SOL    HW2 3516   1.471   2.008   4.177
 1173SOL     OW 3517   0.237   3.647   4.932
 1173SOL    HW1 3518   0.293   3.567   4.953
 1173SOL    HW2 3519   0.196   3.636   4.841
 1174SOL     OW 3520   0.936   3.575   4.618
 1174SOL    HW1 3521   0.989   3.509   4.671
 1174SOL    HW2 3522   0.884   3.527   4.547
 1175SOL     OW 3523   0.391   2.555   4.187
 1175SOL    HW1 3524   0.400   2.457   4.202
 1175SOL    HW2 3525   0.295   2.582   4.198
 1176SOL     OW 3526   1.505   2.115   5.455
 1176SOL    HW1 3527   1.516   2.144   5.550
 1176SOL    HW2 3528   1.428   2.051   5.448
 1177SOL     OW 3529   0.610   1.967   3.796
 1177SOL    HW1 3530   0.705   1.939   3.781
 1177SOL    HW2 3531   0.553   1.929   3.723
 1178SOL     OW 3532   0.737   2.149   5.485
 1178SOL    HW1 3533   0.825   2.101   5.488
 1178SOL    HW2 3534   0.680   2.117   5.560
 1179SOL     OW 3535   0.918   3.407   4.925
 1179SOL    HW1 3536   0.877   3.363   4.844
 1179SOL    HW2 3537   0.991   3.349   4.960
 1180SOL     OW 3538   1.336   2.472   5.169
 1180SOL    HW1 3539   1.374   2.444   5.257
 1180SOL    HW2 3540   1.374   2.562   5.143
 1181SOL     OW 3541   0.773   3.260   4.651
 1181SOL    HW1 3542   0.863   3.279   4.611
 1181SOL    HW2 3543   0.707   3.241   4.578
 1182SOL     OW 3544   0.922   2.367   4.633
 1182SOL    HW1 3545   0.882   2.348   4.544
 1182SOL    HW2 3546   0.955   2.282   4.674
 1183SOL     OW 3547   0.556   1.924   4.207
 1183SOL    HW1 3548   0.478   1.925   4.269
 1183SOL    HW2 3549   0.557   2.009   4.153
 1184SOL     OW 3550   1.410   3.051   3.742
 1184SOL    HW1 3551   1.442   2.960   3.767
 1184SOL    HW2 3552   1.346   3.084   3.812
 1185SOL     OW 3553   0.254   1.891   3.909
 1185SOL    HW1 3554   0.296   1.959   3.849
 1185SOL    HW2 3555   0.325   1.833   3.948
 1186SOL     OW 3556   0.947   2.086   4.199
 1186SOL    HW1 3557   0.899   2.134   4.125
 1186SOL    HW2 3558   1.042   2.119   4.204
 1187SOL     OW 3559   1.084   2.519   5.165
 1187SOL    HW1 3560   1.023   2.446   5.194
 1187SOL    HW2 3561   1.179   2.488   5.173
 1188SOL     OW 3562   1.200   3.419   4.522
 1188SOL    HW1 3563   1.226   3.454   4.432
 1188SOL    HW2 3564   1.280   3.419   4.582
 1189SOL     OW 3565   0.463   3.022   4.473
 1189SOL    HW1 3566   0.384   2.997   4.528
 1189SOL    HW2 3567   0.436   3.030   4.377
 1190SOL     OW 3568   1.299   3.654   4.303
 1190SOL    HW1 3569   1.328   3.722   4.235
 1190SOL    HW2 3570   1.244   3.699   4.374
 1191SOL     OW 3571   1.023   2.387   3.681
 1191SOL    HW1 3572   0.970   2.471   3.678
 1191SOL    HW2 3573   1.091   2.393   3.754
 1192SOL     OW 3574   0.086   2.413   5.154
 1192SOL    HW1 3575   0.159   2.387   5.090
 1192SOL    HW2 3576   0.100   2.507   5.184
 1193SOL     OW 3577   0.555   2.100   4.915
 1193SOL    HW1 3578   0.613   2.032   4.960
 1193SOL    HW2 3579   0.459   2.078   4.934
 1194SOL     OW 3580   0.857   2.283   4.387
 1194SOL    HW1 3581   0.803   2.326   4.315
 1194SOL    HW2 3582   0.909   2.206   4.350
 1195SOL     OW 3583   0.981   1.937   4.473
 1195SOL    HW1 3584   0.941   1.908   4.386
 1195SOL    HW2 3585   0.998   1.857   4.530
 1196SOL     OW 3586   1.452   2.998   4.612
 1196SOL    HW1 3587   1.365   2.951   4.630
 1196SOL    HW2 3588   1.477   2.987   4.516
 1197SOL     OW 3589   1.462   2.452   4.672
 1197SOL    HW1 3590   1.414   2.364   4.670
 1197SOL    HW2 3591   1.534   2.449   4.741
 1198SOL     OW 3592   1.881   2.670   4.086
 1198SOL    HW1 3593   1.919   2.614   4.160
 1198SOL    HW2 3594   1.813   2.617   4.036
 1199SOL     OW 3595   0.496   3.253   3.922
 1199SOL    HW1 3596   0.401   3.240   3.950
 1199SOL    HW2 3597   0.504   3.243   3.823
 1200SOL     OW 3598   1.714   3.150   4.438
 1200SOL    HW1 3599   1.804   3.167   4.396
 1200SOL    HW2 3600   1.660   3.234   4.435
 1201SOL     OW 3601   1.377   2.448   3.817
 1201SOL    HW1 3602   1.305   2.407   3.873
 1201SOL    HW2 3603   1.466   2.420   3.851
 1202SOL     OW 3604   0.527   2.124   4.036
 1202SOL    HW1 3605   0.550   2.065   3.958
 1202SOL    HW2 3606   0.509   2.216   4.003
 1203SOL     OW 3607   1.737   3.137   5.292
 1203SOL    HW1 3608   1.818   3.079   5.302
 1203SOL    HW2 3609   1.761   3.232   5.313
 1204SOL     OW 3610   1.063   3.219   5.085
 1204SOL    HW1 3611   0.976   3.188   5.124
 1204SOL    HW2 3612   1.139   3.175   5.133
 1205SOL     OW 3613   1.601   3.531   5.381
 1205SOL    HW1 3614   1.592   3.552   5.284
 1205SOL    HW2 3615   1.687   3.483   5.397
 1206SOL     OW 3616   1.064   3.037   4.863
 1206SOL    HW1 3617   1.063   3.107   4.934
 1206SOL    HW2 3618   1.042   3.079   4.775
 1207SOL     OW 3619   1.640   2.949   4.823
 1207SOL    HW1 3620   1.636   3.021   4.892
 1207SOL    HW2 3621   1.570   2.965   4.754
 1208SOL     OW 3622   0.913   1.942   5.147
 1208SOL    HW1 3623   0.926   1.920   5.050
 1208SOL    HW2 3624   0.993   1.993   5.180
 1209SOL     OW 3625   0.982   2.958   5.453
 1209SOL    HW1 3626   0.883   2.973   5.464
 1209SOL    HW2 3627   0.997   2.883   5.389
 1210SOL     OW 3628   0.726   2.920   4.132
 1210SOL    HW1 3629   0.723   2.895   4.228
 1210SOL    HW2 3630   0.804   2.877   4.088
 1211SOL     OW 3631   0.425   2.663   4.952
 1211SOL    HW1 3632   0.499   2.671   5.019
 1211SOL    HW2 3633   0.376   2.577   4.966
 1212SOL     OW 3634   1.266   2.288   4.995
 1212SOL    HW1 3635   1.289   2.365   5.055
 1212SOL    HW2 3636   1.168   2.290   4.974
 1213SOL     OW 3637   0.089   3.402   5.067
 1213SOL    HW1 3638   0.040   3.480   5.029
 1213SOL    HW2 3639   0.187   3.424   5.071
 1214SOL     OW 3640   0.401   3.025   4.204
 1214SOL    HW1 3641   0.368   3.081   4.128
 1214SOL    HW2 3642   0.371   2.930   4.190
 1215SOL     OW 3643   0.575   2.391   4.583
 1215SOL    HW1 3644   0.567   2.465   4.516
 1215SOL    HW2 3645   0.644   2.415   4.651
 1216SOL     OW 3646   1.257   3.222   4.090
 1216SOL    HW1 3647   1.317   3.288   4.136
 1216SOL    HW2 3648   1.162   3.246   4.107
 1217SOL     OW 3649   1.329   3.298   4.875
 1217SOL    HW1 3650   1.382   3.327   4.955
 1217SOL    HW2 3651   1.265   3.226   4.901
 1218SOL     OW 3652   1.633   2.504   4.236
 1218SOL    HW1 3653   1.546   2.527   4.279
 1218SOL    HW2 3654   1.637   2.546   4.145
 1219SOL     OW 3655   0.367   3.407   4.999
 1219SOL    HW1 3656   0.367   3.353   4.915
 1219SOL    HW2 3657   0.460   3.416   5.034
 1220SOL     OW 3658   0.410   2.613   5.291
 1220SOL    HW1 3659   0.485   2.656   5.239
 1220SOL    HW2 3660   0.447   2.537   5.345
 1221SOL     OW 3661   1.626   2.692   5.417
 1221SOL    HW1 3662   1.528   2.696   5.400
 1221SOL    HW2 3663   1.675   2.731   5.340
 1222SOL     OW 3664   0.970   2.012   5.497
 1222SOL    HW1 3665   1.052   2.064   5.474
 1222SOL    HW2 3666   0.977   1.920   5.460
 1223SOL     OW 3667   0.451   1.863   5.484
 1223SOL    HW1 3668   0.429   1.812   5.402
 1223SOL    HW2 3669   0.388   1.940   5.494
 1224SOL     OW 3670   0.592   2.718   4.728
 1224SOL    HW1 3671   0.644   2.802   4.736
 1224SOL    HW2 3672   0.528   2.711   4.805
 1225SOL     OW 3673   1.318   2.697   4.785
 1225SOL    HW1 3674   1.237   2.707   4.728
 1225SOL    HW2 3675   1.365   2.612   4.763
 1226SOL     OW 3676   1.186   2.348   3.969
 1226SOL    HW1 3677   1.191   2.273   4.035
 1226SOL    HW2 3678   1.153   2.431   4.015
 1227SOL     OW 3679   0.299   2.043   4.950
 1227SOL    HW1 3680   0.248   2.076   5.030
 1227SOL    HW2 3681   0.280   1.946   4.936
 1228SOL     OW 3682   0.043   3.142   5.031
 1228SOL    HW1 3683   0.107   3.099   5.095
 1228SOL    HW2 3684   0.053   3.241   5.035
 1229SOL     OW 3685   0.744   2.503   4.791
 1229SOL    HW1 3686   0.818   2.475   4.730
 1229SOL    HW2 3687   0.702   2.587   4.755
 1230SOL     OW 3688   1.755   2.852   5.609
 1230SOL    HW1 3689   1.724   2.789   5.537
 1230SOL    HW2 3690   1.682   2.863   5.677
 1231SOL     OW 3691   0.317   1.915   4.349
 1231SOL    HW1 3692   0.295   2.011   4.365
 1231SOL    HW2 3693   0.336   1.870   4.437
 1232SOL     OW 3694   1.583   2.271   4.097
 1232SOL    HW1 3695   1.627   2.193   4.142
 1232SOL    HW2 3696   1.572   2.345   4.163
 1233SOL     OW 3697   1.031   2.642   4.681
 1233SOL    HW1 3698   1.028   2.650   4.780
 1233SOL    HW2 3699   0.997   2.552   4.653
 1234SOL     OW 3700   0.988   3.434   5.463
 1234SOL    HW1 3701   0.958   3.475   5.376
 1234SOL    HW2 3702   1.042   3.352   5.444
 1235SOL     OW 3703   1.842   3.391   5.359
 1235SOL    HW1 3704   1.870   3.421   5.268
 1235SOL    HW2 3705   1.916   3.406   5.424
 1236SOL     OW 3706   0.376   2.804   5.504
 1236SOL    HW1 3707   0.449   2.803   5.573
 1236SOL    HW2 3708   0.398   2.739   5.431
 1237SOL     OW 3709   1.543   2.141   3.869
 1237SOL    HW1 3710   1.492   2.055   3.876
 1237SOL    HW2 3711   1.553   2.181   3.960
 1238SOL     OW 3712   1.306   2.707   3.776
 1238SOL    HW1 3713   1.324   2.609   3.782
 1238SOL    HW2 3714   1.327   2.740   3.684
 1239SOL     OW 3715   1.053   3.220   4.632
 1239SOL    HW1 3716   1.051   3.147   4.564
 1239SOL    HW2 3717   1.107   3.297   4.597
 1240SOL     OW 3718   0.284   2.664   4.662
 1240SOL    HW1 3719   0.381   2.676   4.643
 1240SOL    HW2 3720   0.267   2.568   4.687
 1241SOL     OW 3721   0.360   2.356   4.723
 1241SOL    HW1 3722   0.325   2.262   4.721
 1241SOL    HW2 3723   0.437   2.364   4.660
 1242SOL     OW 3724   1.181   2.225   5.406
 1242SOL    HW1 3725   1.107   2.270   5.457
 1242SOL    HW2 3726   1.257   2.289   5.394
 1243SOL     OW 3727   1.150   2.055   5.209
 1243SOL    HW1 3728   1.166   2.117   5.286
 1243SOL    HW2 3729   1.179   2.099   5.124
 1244SOL     OW 3730   5.973   3.188   3.918
 1244SOL    HW1 3731   5.877   3.180   3.892
 1244SOL    HW2 3732   0.004   3.103   3.961
 1245SOL     OW 3733   0.103   3.635   4.695
 1245SOL    HW1 3734   0.047   3.583   4.630
 1245SOL    HW2 3735   0.188   3.662   4.650
 1246SOL     OW 3736   0.494   3.465   4.600
 1246SOL    HW1 3737   0.576   3.507   4.641
 1246SOL    HW2 3738   0.521   3.383   4.549
 1247SOL     OW 3739   0.980   2.654   4.939
 1247SOL    HW1 3740   1.042   2.642   5.016
 1247SOL    HW2 3741   0.890   2.615   4.961
 1248SOL     OW 3742   5.998   2.397   4.879
 1248SOL    HW1 3743   0.047   2.322   4.834
 1248SOL    HW2 3744   0.026   2.402   4.975
 1249SOL     OW 3745   0.215   2.382   5.438
 1249SOL    HW1 3746   0.279   2.355   5.367
 1249SOL    HW2 3747   0.157   2.456   5.405
 1250SOL     OW 3748   1.375   2.792   5.369
 1250SOL    HW1 3749   1.405   2.887   5.380
 1250SOL    HW2 3750   1.377   2.767   5.272
 1251SOL     OW 3751   0.839   2.413   4.045
 1251SOL    HW1 3752   0.832   2.333   3.985
 1251SOL    HW2 3753   0.756   2.467   4.038
 1252SOL     OW 3754   1.637   2.448   4.883
 1252SOL    HW1 3755   1.624   2.414   4.976
 1252SOL    HW2 3756   1.732   2.433   4.855
 1253SOL     OW 3757   0.299   3.432   5.489
 1253SOL    HW1 3758   0.240   3.500   5.532
 1253SOL    HW2 3759   0.270   3.341   5.518
 1254SOL     OW 3760   0.669   2.338   4.987
 1254SOL    HW1 3761   0.636   2.245   4.969
 1254SOL    HW2 3762   0.689   2.384   4.901
 1255SOL     OW 3763   0.919   3.514   5.209
 1255SOL    HW1 3764   0.917   3.466   5.121
 1255SOL    HW2 3765   0.902   3.612   5.194
 1256SOL     OW 3766   0.496   2.357   3.914
 1256SOL    HW1 3767   0.557   2.429   3.948
 1256SOL    HW2 3768   0.407   2.396   3.892
 1257SOL     OW 3769   0.191   2.998   5.199
 1257SOL    HW1 3770   0.135   2.975   5.278
 1257SOL    HW2 3771   0.175   2.931   5.126
 1258SOL     OW 3772   1.300   2.897   4.958
 1258SOL    HW1 3773   1.315   2.826   4.889
 1258SOL    HW2 3774   1.208   2.936   4.947
 1259SOL     OW 3775   1.309   2.759   4.033
 1259SOL    HW1 3776   1.238   2.705   4.077
 1259SOL    HW2 3777   1.310   2.740   3.935
 1260SOL     OW 3778   1.804   3.569   4.892
 1260SOL    HW1 3779   1.870   3.596   4.823
 1260SOL    HW2 3780   1.755   3.487   4.862
 1261SOL     OW 3781   1.221   3.570   4.892
 1261SOL    HW1 3782   1.283   3.636   4.848
 1261SOL    HW2 3783   1.251   3.477   4.871
 1262SOL     OW 3784   0.089   3.120   4.756
 1262SOL    HW1 3785   0.087   3.115   4.856
 1262SOL    HW2 3786   0.003   3.083   4.719
 1263SOL     OW 3787   0.708   3.517   5.481
 1263SOL    HW1 3788   0.610   3.525   5.461
 1263SOL    HW2 3789   0.760   3.552   5.403
 1264SOL     OW 3790   1.697   2.027   4.216
 1264SOL    HW1 3791   1.777   2.023   4.156
 1264SOL    HW2 3792   1.683   1.939   4.261
 1265SOL     OW 3793   1.380   3.428   4.199
 1265SOL    HW1 3794   1.453   3.450   4.135
 1265SOL    HW2 3795   1.337   3.513   4.231
 1266SOL     OW 3796   0.150   3.658   5.559
 1266SOL    HW1 3797   0.076   3.597   5.588
 1266SOL    HW2 3798   0.200   3.690   5.639
 1267SOL     OW 3799   1.277   2.778   4.377
 1267SOL    HW1 3800   1.345   2.708   4.400
 1267SOL    HW2 3801   1.323   2.866   4.363
 1268SOL     OW 3802   0.787   3.107   5.130
 1268SOL    HW1 3803   0.770   3.174   5.202
 1268SOL    HW2 3804   0.708   3.103   5.068
 1269SOL     OW 3805   0.641   3.480   3.896
 1269SOL    HW1 3806   0.667   3.494   3.800
 1269SOL    HW2 3807   0.605   3.388   3.908
 1270SOL     OW 3808   1.639   3.606   5.118
 1270SOL    HW1 3809   1.696   3.601   5.036
 1270SOL    HW2 3810   1.622   3.703   5.140
 1271SOL     OW 3811   1.867   2.030   4.685
 1271SOL    HW1 3812   1.881   1.932   4.666
 1271SOL    HW2 3813   1.773   2.055   4.661
 1272SOL     OW 3814   0.272   2.155   4.432
 1272SOL    HW1 3815   0.181   2.185   4.405
 1272SOL    HW2 3816   0.274   2.138   4.531
 1273SOL     OW 3817   1.220   3.467   3.738
 1273SOL    HW1 3818   1.193   3.383   3.787
 1273SOL    HW2 3819   1.162   3.479   3.658
 1274SOL     OW 3820   0.831   2.855   5.095
 1274SOL    HW1 3821   0.899   2.843   5.023
 1274SOL    HW2 3822   0.812   2.952   5.108
 1275SOL     OW 3823   0.911   2.783   3.992
 1275SOL    HW1 3824   0.985   2.829   3.943
 1275SOL    HW2 3825   0.931   2.685   3.998
 1276SOL     OW 3826   1.522   3.491   3.796
 1276SOL    HW1 3827   1.424   3.487   3.815
 1276SOL    HW2 3828   1.537   3.509   3.699
 1277SOL     OW 3829   0.382   3.173   5.256
 1277SOL    HW1 3830   0.352   3.259   5.215
 1277SOL    HW2 3831   0.321   3.099   5.228
 1278SOL     OW 3832   1.631   3.152   5.021
 1278SOL    HW1 3833   1.682   3.134   5.105
 1278SOL    HW2 3834   1.568   3.228   5.034
 1279SOL     OW 3835   1.026   3.015   4.441
 1279SOL    HW1 3836   0.974   2.937   4.475
 1279SOL    HW2 3837   1.082   2.986   4.363
 1280SOL     OW 3838   0.978   2.104   4.701
 1280SOL    HW1 3839   0.963   2.067   4.609
 1280SOL    HW2 3840   0.983   2.028   4.767
 1281SOL     OW 3841   0.598   3.340   4.175
 1281SOL    HW1 3842   0.618   3.261   4.117
 1281SOL    HW2 3843   0.536   3.402   4.127
 1282SOL     OW 3844   1.721   2.269   5.082
 1282SOL    HW1 3845   1.797   2.328   5.109
 1282SOL    HW2 3846   1.753   2.202   5.015
 1283SOL     OW 3847   0.234   3.235   4.026
 1283SOL    HW1 3848   0.138   3.217   4.002
 1283SOL    HW2 3849   0.238   3.283   4.114
 1284SOL     OW 3850   0.110   2.905   5.503
 1284SOL    HW1 3851   0.061   2.823   5.471
 1284SOL    HW2 3852   0.208   2.889   5.496
 1285SOL     OW 3853   0.681   2.077   5.209
 1285SOL    HW1 3854   0.769   2.034   5.187
 1285SOL    HW2 3855   0.692   2.139   5.287
 1286SOL     OW 3856   0.076   2.237   3.757
 1286SOL    HW1 3857   5.982   2.220   3.728
 1286SOL    HW2 3858   0.119   2.302   3.695
 1287SOL     OW 3859   1.431   2.722   5.120
 1287SOL    HW1 3860   1.369   2.778   5.066
 1287SOL    HW2 3861   1.523   2.726   5.082
 1288SOL     OW 3862   0.070   2.071   4.040
 1288SOL    HW1 3863   0.075   2.152   3.981
 1288SOL    HW2 3864   0.141   2.006   4.013
 1289SOL     OW 3865   1.182   3.208   3.841
 1289SOL    HW1 3866   1.136   3.120   3.829
 1289SOL    HW2 3867   1.217   3.215   3.934
 1290SOL     OW 3868   0.628   2.677   5.153
 1290SOL    HW1 3869   0.679   2.762   5.139
 1290SOL    HW2 3870   0.693   2.602   5.168
 1291SOL     OW 3871   1.490   3.657   4.729
 1291SOL    HW1 3872   1.471   3.730   4.664
 1291SOL    HW2 3873   1.587   3.633   4.726
 1292SOL     OW 3874   0.710   2.424   5.423
 1292SOL    HW1 3875   0.744   2.493   5.488
 1292SOL    HW2 3876   0.720   2.333   5.462
 1293SOL     OW 3877   1.461   3.060   5.362
 1293SOL    HW1 3878   1.448   3.065   5.461
 1293SOL    HW2 3879   1.549   3.102   5.337
 1294SOL     OW 3880   0.382   3.565   5.274
 1294SOL    HW1 3881   0.299   3.615   5.247
 1294SOL    HW2 3882   0.360   3.503   5.349
 1295SOL     OW 3883   1.677   2.723   4.962
 1295SOL    HW1 3884   1.652   2.641   4.910
 1295SOL    HW2 3885   1.671   2.803   4.903
 1296SOL     OW 3886   1.204   2.187   4.180
 1296SOL    HW1 3887   1.269   2.112   4.165
 1296SOL    HW2 3888   1.234   2.240   4.260
 1297SOL     OW 3889   0.544   2.591   4.412
 1297SOL    HW1 3890   0.593   2.678   4.406
 1297SOL    HW2 3891   0.487   2.579   4.331
 1298SOL     OW 3892   1.728   2.266   5.375
 1298SOL    HW1 3893   1.730   2.282   5.276
 1298SOL    HW2 3894   1.656   2.200   5.397
 1299SOL     OW 3895   1.747   2.819   5.203
 1299SOL    HW1 3896   1.749   2.918   5.190
 1299SOL    HW2 3897   1.730   2.774   5.115
 1300SOL     OW 3898   0.842   3.278   3.742
 1300SOL    HW1 3899   0.850   3.258   3.840
 1300SOL    HW2 3900   0.885   3.366   3.723
 1301SOL     OW 3901   0.675   3.663   4.681
 1301SOL    HW1 3902   0.625   3.749   4.680
 1301SOL    HW2 3903   0.768   3.677   4.647
 1302SOL     OW 3904   0.869   2.847   4.592
 1302SOL    HW1 3905   0.934   2.775   4.618
 1302SOL    HW2 3906   0.848   2.903   4.673
 1303SOL     OW 3907   1.086   2.895   3.794
 1303SOL    HW1 3908   1.042   2.921   3.709
 1303SOL    HW2 3909   1.149   2.819   3.778
 1304SOL     OW 3910   1.814   3.436   4.582
 1304SOL    HW1 3911   1.736   3.414   4.523
 1304SOL    HW2 3912   1.807   3.383   4.667
 1305SOL     OW 3913   0.230   3.176   5.597
 1305SOL    HW1 3914   0.169   3.111   5.550
 1305SOL    HW2 3915   0.191   3.200   5.686
 1306SOL     OW 3916   0.115   3.074   4.349
 1306SOL    HW1 3917   0.104   3.093   4.447
 1306SOL    HW2 3918   0.196   3.121   4.315
 1307SOL     OW 3919   0.738   3.255   5.343
 1307SOL    HW1 3920   0.644   3.233   5.367
 1307SOL    HW2 3921   0.768   3.334   5.397
 1308SOL     OW 3922   1.812   2.039   4.951
 1308SOL    HW1 3923   1.809   1.947   4.989
 1308SOL    HW2 3924   1.845   2.036   4.857
 1309SOL     OW 3925   0.420   2.294   4.246
 1309SOL    HW1 3926   0.453   2.219   4.189
 1309SOL    HW2 3927   0.357   2.258   4.315
 1310SOL     OW 3928   1.690   3.332   4.822
 1310SOL    HW1 3929   1.600   3.326   4.780
 1310SOL    HW2 3930   1.699   3.261   4.892
 1311SOL     OW 3931   0.298   2.419   4.981
 1311SOL    HW1 3932   0.360   2.371   5.043
 1311SOL    HW2 3933   0.322   2.396   4.886
 1312SOL     OW 3934   0.817   3.431   4.407
 1312SOL    HW1 3935   0.840   3.431   4.310
 1312SOL    HW2 3936   0.720   3.410   4.418
 1313SOL     OW 3937   1.414   2.110   4.862
 1313SOL    HW1 3938   1.488   2.055   4.899
 1313SOL    HW2 3939   1.373   2.164   4.935
 1314SOL     OW 3940   0.989   1.900   4.882
 1314SOL    HW1 3941   0.937   1.828   4.837
 1314SOL    HW2 3942   1.079   1.865   4.909
 1315SOL     OW 3943   0.827   3.150   4.062
 1315SOL    HW1 3944   0.775   3.066   4.078
 1315SOL    HW2 3945   0.876   3.175   4.146
 1316SOL     OW 3946   0.649   3.420   5.006
 1316SOL    HW1 3947   0.638   3.499   5.066
 1316SOL    HW2 3948   0.745   3.411   4.980
 1317SOL     OW 3949   1.375   1.928   3.883
 1317SOL    HW1 3950   1.413   1.890   3.799
 1317SOL    HW2 3951   1.304   1.867   3.918
 1318SOL     OW 3952   1.314   2.310   4.397
 1318SOL    HW1 3953   1.270   2.399   4.393
 1318SOL    HW2 3954   1.318   2.280   4.493
 1319SOL     OW 3955   1.611   2.088   4.623
 1319SOL    HW1 3956   1.545   2.097   4.697
 1319SOL    HW2 3957   1.608   2.168   4.565
 1320SOL     OW 3958   0.083   2.976   4.035
 1320SOL    HW1 3959   0.164   2.924   4.009
 1320SOL    HW2 3960   0.045   2.940   4.120
 1321SOL     OW 3961   0.871   3.498   4.026
 1321SOL    HW1 3962   0.783   3.489   3.981
 1321SOL    HW2 3963   0.873   3.582   4.080
 1322SOL     OW 3964   0.232   2.509   5.728
 1322SOL    HW1 3965   0.145   2.514   5.777
 1322SOL    HW2 3966   0.215   2.475   5.635
 1323SOL     OW 3967   1.765   2.453   5.837
 1323SOL    HW1 3968   1.777   2.478   5.741
 1323SOL    HW2 3969   1.678   2.404   5.848
 1324SOL     OW 3970   0.283   3.525   0.082
 1324SOL    HW1 3971   0.291   3.618   0.117
 1324SOL    HW2 3972   0.323   3.520   5.990
 1325SOL     OW 3973   0.600   2.827   5.753
 1325SOL    HW1 3974   0.622   2.894   5.682
 1325SOL    HW2 3975   0.630   2.863   5.842
 1326SOL     OW 3976   1.851   3.609   5.920
 1326SOL    HW1 3977   1.870   3.557   0.003
 1326SOL    HW2 3978   1.868   3.706   5.936
 1327SOL     OW 3979   0.070   3.466   5.728
 1327SOL    HW1 3980   0.040   3.372   5.714
 1327SOL    HW2 3981   0.026   3.504   5.809
 1328SOL     OW 3982   1.713   2.774   0.207
 1328SOL    HW1 3983   1.799   2.779   0.259
 1328SOL    HW2 3984   1.731   2.795   0.111
 1329SOL     OW 3985   1.663   2.988   5.965
 1329SOL    HW1 3986   1.763   2.980   5.973
 1329SOL    HW2 3987   1.624   3.001   0.056
 1330SOL     OW 3988   1.517   2.862   5.778
 1330SOL    HW1 3989   1.469   2.780   5.809
 1330SOL    HW2 3990   1.565   2.903   5.856
 1331SOL     OW 3991   0.561   2.574   5.870
 1331SOL    HW1 3992   0.587   2.657   5.821
 1331SOL    HW2 3993   0.535   2.597   5.964
 1332SOL     OW 3994   0.861   2.225   5.761
 1332SOL    HW1 3995   0.918   2.258   5.686
 1332SOL    HW2 3996   0.840   2.128   5.747
 1333SOL     OW 3997   0.317   2.815   5.840
 1333SOL    HW1 3998   0.409   2.830   5.802
 1333SOL    HW2 3999   0.275   2.737   5.796
 1334SOL     OW 4000   1.140   3.639   5.836
 1334SOL    HW1 4001   1.049   3.602   5.853
 1334SOL    HW2 4002   1.173   3.608   5.747
 1335SOL     OW 4003   1.649   3.209   5.636
 1335SOL    HW1 4004   1.629   3.306   5.648
 1335SOL    HW2 4005   1.563   3.159   5.624
 1336SOL     OW 4006   0.450   3.598   5.887
 1336SOL    HW1 4007   0.493   3.634   5.970
 1336SOL    HW2 4008   0.520   3.555   5.830
 1337SOL     OW 4009   0.592   1.979   5.673
 1337SOL    HW1 4010   0.676   1.925   5.684
 1337SOL    HW2 4011   0.540   1.944   5.595
 1338SOL     OW 4012   1.416   3.058   5.621
 1338SOL    HW1 4013   1.455   2.979   5.668
 1338SOL    HW2 4014   1.352   3.105   5.681
 1339SOL     OW 4015   0.275   1.903   5.778
 1339SOL    HW1 4016   0.324   1.969   5.722
 1339SOL    HW2 4017   0.339   1.832   5.810
 1340SOL     OW 4018   1.012   2.369   5.561
 1340SOL    HW1 4019   0.958   2.453   5.555
 1340SOL    HW2 4020   1.086   2.381   5.627
 1341SOL     OW 4021   1.855   2.685   5.972
 1341SOL    HW1 4022   1.889   2.625   0.045
 1341SOL    HW2 4023   1.828   2.630   5.893
 1342SOL     OW 4024   0.503   3.265   5.779
 1342SOL    HW1 4025   0.413   3.253   5.823
 1342SOL    HW2 4026   0.498   3.234   5.684
 1343SOL     OW 4027   1.700   3.198   0.330
 1343SOL    HW1 4028   1.786   3.151   0.312
 1343SOL    HW2 4029   1.648   3.207   0.245
 1344SOL     OW 4030   1.368   2.448   5.663
 1344SOL    HW1 4031   1.296   2.414   5.723
 1344SOL    HW2 4032   1.457   2.438   5.708
 1345SOL     OW 4033   0.540   2.118   5.902
 1345SOL    HW1 4034   0.537   2.052   5.827
 1345SOL    HW2 4035   0.535   2.211   5.865
 1346SOL     OW 4036   0.382   2.949   0.073
 1346SOL    HW1 4037   0.383   3.049   0.068
 1346SOL    HW2 4038   0.350   2.912   5.986
 1347SOL     OW 4039   1.169   2.378   5.833
 1347SOL    HW1 4040   1.207   2.287   5.852
 1347SOL    HW2 4041   1.113   2.408   5.910
 1348SOL     OW 4042   0.306   1.920   0.197
 1348SOL    HW1 4043   0.346   2.010   0.177
 1348SOL    HW2 4044   0.375   1.864   0.243
 1349SOL     OW 4045   1.544   2.155   5.721
 1349SOL    HW1 4046   1.488   2.073   5.714
 1349SOL    HW2 4047   1.564   2.175   5.817
 1350SOL     OW 4048   1.287   2.696   5.599
 1350SOL    HW1 4049   1.321   2.603   5.608
 1350SOL    HW2 4050   1.317   2.734   5.512
 1351SOL     OW 4051   0.010   3.209   5.764
 1351SOL    HW1 4052   5.914   3.213   5.734
 1351SOL    HW2 4053   0.026   3.122   5.812
 1352SOL     OW 4054   0.810   2.468   5.883
 1352SOL    HW1 4055   0.820   2.376   5.844
 1352SOL    HW2 4056   0.714   2.495   5.880
 1353SOL     OW 4057   0.476   2.342   5.749
 1353SOL    HW1 4058   0.525   2.419   5.790
 1353SOL    HW2 4059   0.384   2.371   5.724
 1354SOL     OW 4060   1.694   1.947   0.152
 1354SOL    HW1 4061   1.722   2.002   0.073
 1354SOL    HW2 4062   1.685   1.851   0.125
 1355SOL     OW 4063   0.669   3.474   5.761
 1355SOL    HW1 4064   0.680   3.491   5.663
 1355SOL    HW2 4065   0.613   3.393   5.775
 1356SOL     OW 4066   1.224   3.484   5.611
 1356SOL    HW1 4067   1.195   3.397   5.649
 1356SOL    HW2 4068   1.174   3.501   5.525
 1357SOL     OW 4069   0.937   2.743   5.878
 1357SOL    HW1 4070   0.992   2.774   5.800
 1357SOL    HW2 4071   0.910   2.648   5.864
 1358SOL     OW 4072   1.486   3.557   5.639
 1358SOL    HW1 4073   1.392   3.523   5.636
 1358SOL    HW2 4074   1.530   3.543   5.550
 1359SOL     OW 4075   1.063   2.964   0.336
 1359SOL    HW1 4076   0.965   2.980   0.344
 1359SOL    HW2 4077   1.084   2.928   0.245
 1360SOL     OW 4078   0.266   3.254   5.915
 1360SOL    HW1 4079   0.178   3.263   5.868
 1360SOL    HW2 4080   0.261   3.298   0.004
 1361SOL     OW 4081   0.070   2.266   5.640
 1361SOL    HW1 4082   5.971   2.270   5.627
 1361SOL    HW2 4083   0.116   2.306   5.560
 1362SOL     OW 4084   0.077   2.073   5.861
 1362SOL    HW1 4085   0.085   2.147   5.794
 1362SOL    HW2 4086   0.150   2.007   5.847
 1363SOL     OW 4087   1.198   3.225   5.744
 1363SOL    HW1 4088   1.110   3.192   5.708
 1363SOL    HW2 4089   1.217   3.179   5.831
 1364SOL     OW 4090   1.262   2.167   5.997
 1364SOL    HW1 4091   1.349   2.145   0.041
 1364SOL    HW2 4092   1.209   2.226   0.058
 1365SOL     OW 4093   0.857   3.250   5.615
 1365SOL    HW1 4094   0.799   3.291   5.686
 1365SOL    HW2 4095   0.910   3.322   5.570
 1366SOL     OW 4096   1.088   2.846   5.685
 1366SOL    HW1 4097   1.043   2.882   5.604
 1366SOL    HW2 4098   1.171   2.797   5.658
 1367SOL     OW 4099   1.388   1.936   5.736
 1367SOL    HW1 4100   1.422   1.861   5.679
 1367SOL    HW2 4101   1.307   1.906   5.787
 1368SOL     OW 4102   0.075   2.991   5.903
 1368SOL    HW1 4103   0.158   2.940   5.882
 1368SOL    HW2 4104   5.999   2.927   5.917
 1369SOL     OW 4105   0.903   3.509   5.899
 1369SOL    HW1 4106   0.817   3.488   5.851
 1369SOL    HW2 4107   0.888   3.586   5.961
 1370SOL     OW 4108   0.256   4.397   0.143
 1370SOL    HW1 4109   0.162   4.380   0.171
 1370SOL    HW2 4110   0.275   4.346   0.059
 1371SOL     OW 4111   0.215   3.989   0.969
 1371SOL    HW1 4112   0.240   3.956   1.060
 1371SOL    HW2 4113   0.117   4.008   0.966
 1372SOL     OW 4114   0.026   4.111   0.617
 1372SOL    HW1 4115   5.981   4.135   0.703
 1372SOL    HW2 4116   5.989   4.024   0.583
 1373SOL     OW 4117   0.578   4.963   1.237
 1373SOL    HW1 4118   0.487   4.928   1.215
 1373SOL    HW2 4119   0.579   5.063   1.228
 1374SOL     OW 4120   1.565   5.251   0.704
 1374SOL    HW1 4121   1.528   5.214   0.789
 1374SOL    HW2 4122   1.494   5.254   0.635
 1375SOL     OW 4123   1.109   4.418   0.647
 1375SOL    HW1 4124   1.168   4.499   0.652
 1375SOL    HW2 4125   1.053   4.413   0.730
 1376SOL     OW 4126   1.686   4.327   0.199
 1376SOL    HW1 4127   1.714   4.310   0.105
 1376SOL    HW2 4128   1.653   4.241   0.240
 1377SOL     OW 4129   0.779   4.887   1.062
 1377SOL    HW1 4130   0.702   4.901   1.124
 1377SOL    HW2 4131   0.794   4.970   1.008
 1378SOL     OW 4132   0.848   4.532   1.797
 1378SOL    HW1 4133   0.844   4.614   1.854
 1378SOL    HW2 4134   0.855   4.559   1.701
 1379SOL     OW 4135   0.660   4.709   0.706
 1379SOL    HW1 4136   0.746   4.715   0.757
 1379SOL    HW2 4137   0.612   4.797   0.712
 1380SOL     OW 4138   0.697   4.873   1.817
 1380SOL    HW1 4139   0.760   4.951   1.818
 1380SOL    HW2 4140   0.605   4.905   1.796
 1381SOL     OW 4141   0.352   5.127   1.043
 1381SOL    HW1 4142   0.261   5.105   1.006
 1381SOL    HW2 4143   0.394   5.198   0.987
 1382SOL     OW 4144   1.495   5.258   1.347
 1382SOL    HW1 4145   1.552   5.339   1.358
 1382SOL    HW2 4146   1.420   5.260   1.412
 1383SOL     OW 4147   0.404   4.139   1.496
 1383SOL    HW1 4148   0.491   4.092   1.478
 1383SOL    HW2 4149   0.331   4.071   1.503
 1384SOL     OW 4150   1.649   4.170   0.740
 1384SOL    HW1 4151   1.580   4.207   0.679
 1384SOL    HW2 4152   1.669   4.236   0.812
 1385SOL     OW 4153   0.259   5.408   0.500
 1385SOL    HW1 4154   0.264   5.495   0.549
 1385SOL    HW2 4155   0.330   5.406   0.429
 1386SOL     OW 4156   1.100   5.065   1.686
 1386SOL    HW1 4157   1.160   5.072   1.765
 1386SOL    HW2 4158   1.042   4.984   1.694
 1387SOL     OW 4159   0.260   5.142   0.542
 1387SOL    HW1 4160   0.254   5.242   0.542
 1387SOL    HW2 4161   0.180   5.104   0.588
 1388SOL     OW 4162   0.257   4.798   0.900
 1388SOL    HW1 4163   0.259   4.707   0.940
 1388SOL    HW2 4164   0.222   4.863   0.967
 1389SOL     OW 4165   0.637   5.502   1.454
 1389SOL    HW1 4166   0.543   5.477   1.478
 1389SOL    HW2 4167   0.650   5.600   1.467
 1390SOL     OW 4168   0.602   4.654   0.130
 1390SOL    HW1 4169   0.531   4.721   0.110
 1390SOL    HW2 4170   0.671   4.695   0.189
 1391SOL     OW 4171   1.640   3.868   1.481
 1391SOL    HW1 4172   1.643   3.956   1.433
 1391SOL    HW2 4173   1.591   3.878   1.567
 1392SOL     OW 4174   0.134   4.367   0.595
 1392SOL    HW1 4175   0.102   4.279   0.560
 1392SOL    HW2 4176   0.064   4.408   0.652
 1393SOL     OW 4177   1.899   5.461   0.339
 1393SOL    HW1 4178   1.885   5.425   0.431
 1393SOL    HW2 4179   1.900   5.561   0.342
 1394SOL     OW 4180   0.007   5.287   0.082
 1394SOL    HW1 4181   0.014   5.188   0.094
 1394SOL    HW2 4182   5.978   5.330   0.168
 1395SOL     OW 4183   1.672   4.626   0.660
 1395SOL    HW1 4184   1.745   4.591   0.601
 1395SOL    HW2 4185   1.626   4.702   0.614
 1396SOL     OW 4186   1.629   4.841   0.503
 1396SOL    HW1 4187   1.675   4.844   0.415
 1396SOL    HW2 4188   1.667   4.910   0.564
 1397SOL     OW 4189   0.101   4.485   1.686
 1397SOL    HW1 4190   0.178   4.507   1.747
 1397SOL    HW2 4191   0.115   4.531   1.598
 1398SOL     OW 4192   0.581   5.117   0.709
 1398SOL    HW1 4193   0.529   5.033   0.721
 1398SOL    HW2 4194   0.574   5.148   0.614
 1399SOL     OW 4195   1.297   4.937   1.445
 1399SOL    HW1 4196   1.311   4.883   1.362
 1399SOL    HW2 4197   1.361   4.907   1.515
 1400SOL     OW 4198   0.822   3.740   0.504
 1400SOL    HW1 4199   0.871   3.825   0.483
 1400SOL    HW2 4200   0.725   3.759   0.515
 1401SOL     OW 4201   0.228   4.702   1.211
 1401SOL    HW1 4202   0.308   4.642   1.205
 1401SOL    HW2 4203   0.152   4.662   1.160
 1402SOL     OW 4204   1.476   4.783   0.173
 1402SOL    HW1 4205   1.409   4.718   0.137
 1402SOL    HW2 4206   1.522   4.743   0.252
 1403SOL     OW 4207   1.215   5.535   1.611
 1403SOL    HW1 4208   1.177   5.575   1.528
 1403SOL    HW2 4209   1.244   5.441   1.592
 1404SOL     OW 4210   0.311   3.969   1.828
 1404SOL    HW1 4211   0.371   4.047   1.807
 1404SOL    HW2 4212   0.222   4.004   1.858
 1405SOL     OW 4213   1.479   5.128   0.927
 1405SOL    HW1 4214   1.412   5.141   1.000
 1405SOL    HW2 4215   1.480   5.032   0.899
 1406SOL     OW 4216   1.665   5.456   0.549
 1406SOL    HW1 4217   1.608   5.447   0.468
 1406SOL    HW2 4218   1.640   5.387   0.616
 1407SOL     OW 4219   0.616   4.434   0.294
 1407SOL    HW1 4220   0.613   4.513   0.232
 1407SOL    HW2 4221   0.543   4.443   0.362
 1408SOL     OW 4222   1.298   4.086   0.929
 1408SOL    HW1 4223   1.200   4.066   0.926
 1408SOL    HW2 4224   1.340   4.038   1.006
 1409SOL     OW 4225   1.576   5.393   0.306
 1409SOL    HW1 4226   1.674   5.376   0.310
 1409SOL    HW2 4227   1.547   5.394   0.210
 1410SOL     OW 4228   0.800   4.331   1.462
 1410SOL    HW1 4229   0.765   4.299   1.550
 1410SOL    HW2 4230   0.758   4.277   1.388
 1411SOL     OW 4231   1.393   4.253   1.694
 1411SOL    HW1 4232   1.367   4.284   1.785
 1411SOL    HW2 4233   1.463   4.182   1.701
 1412SOL     OW 4234   0.993   4.617   1.554
 1412SOL    HW1 4235   1.042   4.535   1.523
 1412SOL    HW2 4236   0.934   4.651   1.480
 1413SOL     OW 4237   1.002   4.101   1.231
 1413SOL    HW1 4238   0.918   4.148   1.258
 1413SOL    HW2 4239   0.988   4.056   1.143
 1414SOL     OW 4240   1.053   4.416   0.388
 1414SOL    HW1 4241   1.067   4.415   0.487
 1414SOL    HW2 4242   0.970   4.365   0.366
 1415SOL     OW 4243   0.048   4.539   0.798
 1415SOL    HW1 4244   0.146   4.526   0.813
 1415SOL    HW2 4245   0.034   4.619   0.739
 1416SOL     OW 4246   0.140   5.587   1.594
 1416SOL    HW1 4247   0.148   5.567   1.692
 1416SOL    HW2 4248   0.050   5.557   1.562
 1417SOL     OW 4249   0.868   4.054   0.174
 1417SOL    HW1 4250   0.921   4.116   0.117
 1417SOL    HW2 4251   0.896   3.960   0.155
 1418SOL     OW 4252   1.714   4.339   1.837
 1418SOL    HW1 4253   1.680   4.426   1.801
 1418SOL    HW2 4254   1.722   4.273   1.762
 1419SOL     OW 4255   1.355   4.877   0.562
 1419SOL    HW1 4256   1.447   4.865   0.524
 1419SOL    HW2 4257   1.293   4.908   0.491
 1420SOL     OW 4258   0.527   3.896   0.903
 1420SOL    HW1 4259   0.551   3.928   0.995
 1420SOL    HW2 4260   0.529   3.973   0.839
 1421SOL     OW 4261   0.990   5.168   0.456
 1421SOL    HW1 4262   0.938   5.242   0.415
 1421SOL    HW2 4263   1.043   5.204   0.534
 1422SOL     OW 4264   0.351   5.512   0.869
 1422SOL    HW1 4265   0.404   5.428   0.877
 1422SOL    HW2 4266   0.408   5.590   0.892
 1423SOL     OW 4267   1.804   4.795   0.908
 1423SOL    HW1 4268   1.775   4.833   0.820
 1423SOL    HW2 4269   1.724   4.781   0.966
 1424SOL     OW 4270   1.260   5.270   1.528
 1424SOL    HW1 4271   1.266   5.173   1.553
 1424SOL    HW2 4272   1.164   5.293   1.511
 1425SOL     OW 4273   0.311   4.639   0.269
 1425SOL    HW1 4274   0.359   4.711   0.218
 1425SOL    HW2 4275   0.288   4.564   0.207
 1426SOL     OW 4276   1.461   4.471   0.737
 1426SOL    HW1 4277   1.465   4.408   0.814
 1426SOL    HW2 4278   1.551   4.510   0.721
 1427SOL     OW 4279   0.479   5.006   1.753
 1427SOL    HW1 4280   0.449   5.009   1.658
 1427SOL    HW2 4281   0.399   5.014   1.813
 1428SOL     OW 4282   1.147   5.459   0.241
 1428SOL    HW1 4283   1.056   5.438   0.278
 1428SOL    HW2 4284   1.162   5.405   0.158
 1429SOL     OW 4285   0.194   3.959   1.484
 1429SOL    HW1 4286   0.112   4.012   1.461
 1429SOL    HW2 4287   0.167   3.873   1.527
 1430SOL     OW 4288   1.616   5.085   0.081
 1430SOL    HW1 4289   1.612   5.181   0.051
 1430SOL    HW2 4290   1.617   5.025   0.001
 1431SOL     OW 4291   0.478   5.463   0.334
 1431SOL    HW1 4292   0.533   5.515   0.400
 1431SOL    HW2 4293   0.534   5.441   0.254
 1432SOL     OW 4294   1.383   3.858   0.420
 1432SOL    HW1 4295   1.379   3.836   0.322
 1432SOL    HW2 4296   1.478   3.869   0.447
 1433SOL     OW 4297   0.224   5.496   1.205
 1433SOL    HW1 4298   0.288   5.421   1.221
 1433SOL    HW2 4299   0.199   5.499   1.109
 1434SOL     OW 4300   0.954   5.436   0.903
 1434SOL    HW1 4301   1.010   5.368   0.952
 1434SOL    HW2 4302   0.898   5.389   0.835
 1435SOL     OW 4303   0.394   4.390   0.483
 1435SOL    HW1 4304   0.393   4.295   0.515
 1435SOL    HW2 4305   0.300   4.425   0.480
 1436SOL     OW 4306   1.515   3.970   1.737
 1436SOL    HW1 4307   1.515   3.998   1.834
 1436SOL    HW2 4308   1.435   3.913   1.719
 1437SOL     OW 4309   0.617   3.821   0.090
 1437SOL    HW1 4310   0.717   3.825   0.092
 1437SOL    HW2 4311   0.582   3.890   0.026
 1438SOL     OW 4312   0.746   4.001   1.751
 1438SOL    HW1 4313   0.839   3.965   1.758
 1438SOL    HW2 4314   0.695   3.977   1.834
 1439SOL     OW 4315   0.917   5.257   1.186
 1439SOL    HW1 4316   0.869   5.216   1.108
 1439SOL    HW2 4317   0.995   5.199   1.211
 1440SOL     OW 4318   1.339   4.339   1.453
 1440SOL    HW1 4319   1.368   4.311   1.545
 1440SOL    HW2 4320   1.383   4.426   1.430
 1441SOL     OW 4321   0.784   5.098   0.898
 1441SOL    HW1 4322   0.859   5.155   0.865
 1441SOL    HW2 4323   0.719   5.083   0.823
 1442SOL     OW 4324   0.921   4.229   0.899
 1442SOL    HW1 4325   0.885   4.205   0.808
 1442SOL    HW2 4326   0.942   4.146   0.950
 1443SOL     OW 4327   0.562   3.795   0.487
 1443SOL    HW1 4328   0.479   3.787   0.542
 1443SOL    HW2 4329   0.561   3.882   0.438
 1444SOL     OW 4330   1.355   4.944   5.980
 1444SOL    HW1 4331   1.420   4.881   0.021
 1444SOL    HW2 4332   1.297   4.985   0.051
 1445SOL     OW 4333   0.947   3.967   0.437
 1445SOL    HW1 4334   0.903   4.018   0.363
 1445SOL    HW2 4335   1.043   3.995   0.443
 1446SOL     OW 4336   1.088   4.390   1.448
 1446SOL    HW1 4337   1.026   4.312   1.461
 1446SOL    HW2 4338   1.182   4.357   1.450
 1447SOL     OW 4339   1.217   5.293   0.813
 1447SOL    HW1 4340   1.263   5.315   0.728
 1447SOL    HW2 4341   1.282   5.298   0.889
 1448SOL     OW 4342   0.452   4.886   0.728
 1448SOL    HW1 4343   0.380   4.841   0.780
 1448SOL    HW2 4344   0.430   4.883   0.631
 1449SOL     OW 4345   1.295   5.541   0.585
 1449SOL    HW1 4346   1.320   5.606   0.514
 1449SOL    HW2 4347   1.271   5.590   0.669
 1450SOL     OW 4348   1.004   4.279   0.063
 1450SOL    HW1 4349   0.929   4.308   0.005
 1450SOL    HW2 4350   1.023   4.348   0.132
 1451SOL     OW 4351   0.087   4.269   1.431
 1451SOL    HW1 4352   0.161   4.274   1.364
 1451SOL    HW2 4353   0.087   4.351   1.488
 1452SOL     OW 4354   0.552   3.964   1.184
 1452SOL    HW1 4355   0.611   3.900   1.234
 1452SOL    HW2 4356   0.456   3.944   1.205
 1453SOL     OW 4357   0.859   4.146   0.650
 1453SOL    HW1 4358   0.810   4.203   0.584
 1453SOL    HW2 4359   0.910   4.075   0.602
 1454SOL     OW 4360   0.957   3.807   0.744
 1454SOL    HW1 4361   0.924   3.773   0.656
 1454SOL    HW2 4362   0.994   3.731   0.798
 1455SOL     OW 4363   1.408   4.875   0.858
 1455SOL    HW1 4364   1.351   4.812   0.912
 1455SOL    HW2 4365   1.378   4.873   0.763
 1456SOL     OW 4366   1.485   4.288   0.927
 1456SOL    HW1 4367   1.417   4.214   0.933
 1456SOL    HW2 4368   1.537   4.292   1.012
 1457SOL     OW 4369   1.881   4.535   0.395
 1457SOL    HW1 4370   1.922   4.465   0.454
 1457SOL    HW2 4371   1.817   4.492   0.332
 1458SOL     OW 4372   0.453   5.120   0.195
 1458SOL    HW1 4373   0.372   5.089   0.246
 1458SOL    HW2 4374   0.423   5.175   0.116
 1459SOL     OW 4375   1.721   5.016   0.716
 1459SOL    HW1 4376   1.815   5.022   0.683
 1459SOL    HW2 4377   1.678   5.106   0.710
 1460SOL     OW 4378   1.378   4.335   0.072
 1460SOL    HW1 4379   1.321   4.297   0.145
 1460SOL    HW2 4380   1.454   4.273   0.053
 1461SOL     OW 4381   0.536   4.016   0.315
 1461SOL    HW1 4382   0.579   3.960   0.244
 1461SOL    HW2 4383   0.506   4.103   0.276
 1462SOL     OW 4384   1.747   5.008   1.573
 1462SOL    HW1 4385   1.817   4.938   1.589
 1462SOL    HW2 4386   1.781   5.096   1.604
 1463SOL     OW 4387   1.065   5.059   1.358
 1463SOL    HW1 4388   0.972   5.038   1.389
 1463SOL    HW2 4389   1.131   5.018   1.420
 1464SOL     OW 4390   1.606   5.394   1.657
 1464SOL    HW1 4391   1.608   5.414   1.559
 1464SOL    HW2 4392   1.690   5.347   1.683
 1465SOL     OW 4393   1.069   4.896   1.128
 1465SOL    HW1 4394   1.067   4.962   1.203
 1465SOL    HW2 4395   1.047   4.943   1.042
 1466SOL     OW 4396   1.614   4.806   1.099
 1466SOL    HW1 4397   1.622   4.887   1.157
 1466SOL    HW2 4398   1.551   4.824   1.024
 1467SOL     OW 4399   0.910   3.810   1.409
 1467SOL    HW1 4400   0.935   3.775   1.319
 1467SOL    HW2 4401   0.986   3.864   1.446
 1468SOL     OW 4402   0.946   4.833   1.711
 1468SOL    HW1 4403   0.846   4.829   1.723
 1468SOL    HW2 4404   0.974   4.763   1.646
 1469SOL     OW 4405   0.737   4.789   0.359
 1469SOL    HW1 4406   0.681   4.781   0.441
 1469SOL    HW2 4407   0.804   4.715   0.357
 1470SOL     OW 4408   0.419   4.528   1.232
 1470SOL    HW1 4409   0.497   4.534   1.294
 1470SOL    HW2 4410   0.373   4.440   1.244
 1471SOL     OW 4411   1.270   4.144   1.280
 1471SOL    HW1 4412   1.294   4.224   1.334
 1471SOL    HW2 4413   1.171   4.143   1.264
 1472SOL     OW 4414   0.091   5.277   1.347
 1472SOL    HW1 4415   0.039   5.347   1.299
 1472SOL    HW2 4416   0.186   5.306   1.357
 1473SOL     OW 4417   0.414   4.880   0.461
 1473SOL    HW1 4418   0.365   4.940   0.397
 1473SOL    HW2 4419   0.383   4.786   0.450
 1474SOL     OW 4420   0.576   4.260   0.867
 1474SOL    HW1 4421   0.564   4.337   0.804
 1474SOL    HW2 4422   0.650   4.281   0.930
 1475SOL     OW 4423   1.260   5.081   0.370
 1475SOL    HW1 4424   1.299   5.160   0.418
 1475SOL    HW2 4425   1.165   5.068   0.400
 1476SOL     OW 4426   1.331   5.177   1.143
 1476SOL    HW1 4427   1.386   5.204   1.223
 1476SOL    HW2 4428   1.268   5.104   1.170
 1477SOL     OW 4429   1.640   4.354   0.491
 1477SOL    HW1 4430   1.544   4.364   0.513
 1477SOL    HW2 4431   1.659   4.398   0.403
 1478SOL     OW 4432   0.374   5.268   1.288
 1478SOL    HW1 4433   0.368   5.216   1.202
 1478SOL    HW2 4434   0.470   5.284   1.311
 1479SOL     OW 4435   0.419   4.487   1.585
 1479SOL    HW1 4436   0.490   4.527   1.527
 1479SOL    HW2 4437   0.452   4.401   1.624
 1480SOL     OW 4438   1.636   4.549   1.680
 1480SOL    HW1 4439   1.537   4.552   1.668
 1480SOL    HW2 4440   1.680   4.593   1.602
 1481SOL     OW 4441   1.002   3.862   1.778
 1481SOL    HW1 4442   1.073   3.909   1.726
 1481SOL    HW2 4443   0.993   3.768   1.745
 1482SOL     OW 4444   0.447   3.737   1.754
 1482SOL    HW1 4445   0.410   3.681   1.680
 1482SOL    HW2 4446   0.386   3.814   1.772
 1483SOL     OW 4447   0.594   4.574   1.018
 1483SOL    HW1 4448   0.643   4.662   1.017
 1483SOL    HW2 4449   0.527   4.574   1.093
 1484SOL     OW 4450   1.328   4.563   1.060
 1484SOL    HW1 4451   1.238   4.566   1.018
 1484SOL    HW2 4452   1.371   4.475   1.040
 1485SOL     OW 4453   1.231   4.243   0.262
 1485SOL    HW1 4454   1.235   4.163   0.323
 1485SOL    HW2 4455   1.170   4.312   0.301
 1486SOL     OW 4456   0.300   3.910   1.228
 1486SOL    HW1 4457   0.259   3.939   1.314
 1486SOL    HW2 4458   0.275   3.815   1.210
 1487SOL     OW 4459   0.062   5.014   1.291
 1487SOL    HW1 4460   0.111   4.962   1.361
 1487SOL    HW2 4461   0.068   5.111   1.312
 1488SOL     OW 4462   0.755   4.365   1.064
 1488SOL    HW1 4463   0.822   4.335   0.996
 1488SOL    HW2 4464   0.709   4.447   1.032
 1489SOL     OW 4465   1.783   4.690   1.853
 1489SOL    HW1 4466   1.740   4.625   1.789
 1489SOL    HW2 4467   1.726   4.698   1.935
 1490SOL     OW 4468   0.332   3.775   0.625
 1490SOL    HW1 4469   0.304   3.868   0.651
 1490SOL    HW2 4470   0.339   3.718   0.707
 1491SOL     OW 4471   1.646   4.107   0.364
 1491SOL    HW1 4472   1.679   4.024   0.408
 1491SOL    HW2 4473   1.656   4.184   0.426
 1492SOL     OW 4474   1.038   4.502   0.961
 1492SOL    HW1 4475   1.033   4.510   1.060
 1492SOL    HW2 4476   0.998   4.415   0.932
 1493SOL     OW 4477   0.995   5.311   1.719
 1493SOL    HW1 4478   0.971   5.349   1.630
 1493SOL    HW2 4479   1.026   5.216   1.707
 1494SOL     OW 4480   1.839   5.250   1.646
 1494SOL    HW1 4481   1.848   5.267   1.547
 1494SOL    HW2 4482   1.929   5.259   1.688
 1495SOL     OW 4483   0.349   4.677   1.783
 1495SOL    HW1 4484   0.418   4.685   1.855
 1495SOL    HW2 4485   0.382   4.615   1.712
 1496SOL     OW 4486   1.483   4.008   0.166
 1496SOL    HW1 4487   1.483   3.908   0.160
 1496SOL    HW2 4488   1.540   4.036   0.244
 1497SOL     OW 4489   1.329   4.585   0.040
 1497SOL    HW1 4490   1.347   4.489   0.058
 1497SOL    HW2 4491   1.289   4.595   5.949
 1498SOL     OW 4492   1.073   5.085   0.906
 1498SOL    HW1 4493   1.065   5.013   0.837
 1498SOL    HW2 4494   1.120   5.164   0.866
 1499SOL     OW 4495   0.298   4.536   0.939
 1499SOL    HW1 4496   0.394   4.558   0.921
 1499SOL    HW2 4497   0.291   4.441   0.968
 1500SOL     OW 4498   0.361   4.216   1.000
 1500SOL    HW1 4499   0.333   4.120   0.992
 1500SOL    HW2 4500   0.439   4.233   0.941
 1501SOL     OW 4501   1.191   4.076   1.703
 1501SOL    HW1 4502   1.113   4.128   1.738
 1501SOL    HW2 4503   1.265   4.139   1.679
 1502SOL     OW 4504   1.140   3.929   1.495
 1502SOL    HW1 4505   1.166   3.987   1.572
 1502SOL    HW2 4506   1.185   3.963   1.412
 1503SOL     OW 4507   5.969   5.038   0.174
 1503SOL    HW1 4508   5.883   5.084   0.194
 1503SOL    HW2 4509   5.980   4.959   0.235
 1504SOL     OW 4510   0.084   5.520   0.911
 1504SOL    HW1 4511   0.050   5.428   0.891
 1504SOL    HW2 4512   0.180   5.526   0.885
 1505SOL     OW 4513   0.506   5.301   0.913
 1505SOL    HW1 4514   0.583   5.364   0.921
 1505SOL    HW2 4515   0.528   5.230   0.846
 1506SOL     OW 4516   0.992   4.515   1.215
 1506SOL    HW1 4517   1.044   4.510   1.300
 1506SOL    HW2 4518   0.909   4.460   1.223
 1507SOL     OW 4519   5.985   4.270   1.171
 1507SOL    HW1 4520   0.021   4.188   1.125
 1507SOL    HW2 4521   0.015   4.270   1.266
 1508SOL     OW 4522   0.231   4.243   1.717
 1508SOL    HW1 4523   0.289   4.213   1.642
 1508SOL    HW2 4524   0.180   4.324   1.691
 1509SOL     OW 4525   1.381   4.640   1.653
 1509SOL    HW1 4526   1.414   4.735   1.660
 1509SOL    HW2 4527   1.367   4.617   1.557
 1510SOL     OW 4528   0.835   4.290   0.326
 1510SOL    HW1 4529   0.824   4.212   0.264
 1510SOL    HW2 4530   0.754   4.348   0.323
 1511SOL     OW 4531   1.623   4.299   1.161
 1511SOL    HW1 4532   1.608   4.271   1.256
 1511SOL    HW2 4533   1.720   4.289   1.138
 1512SOL     OW 4534   0.290   5.310   1.761
 1512SOL    HW1 4535   0.242   5.386   1.805
 1512SOL    HW2 4536   0.246   5.224   1.786
 1513SOL     OW 4537   0.673   4.203   1.263
 1513SOL    HW1 4538   0.639   4.111   1.243
 1513SOL    HW2 4539   0.683   4.255   1.178
 1514SOL     OW 4540   0.927   5.385   1.476
 1514SOL    HW1 4541   0.924   5.326   1.395
 1514SOL    HW2 4542   0.887   5.474   1.454
 1515SOL     OW 4543   0.465   4.227   0.192
 1515SOL    HW1 4544   0.540   4.287   0.218
 1515SOL    HW2 4545   0.378   4.276   0.202
 1516SOL     OW 4546   0.179   4.860   1.474
 1516SOL    HW1 4547   0.124   4.852   1.557
 1516SOL    HW2 4548   0.159   4.783   1.414
 1517SOL     OW 4549   1.300   4.767   1.231
 1517SOL    HW1 4550   1.322   4.696   1.164
 1517SOL    HW2 4551   1.207   4.800   1.215
 1518SOL     OW 4552   1.333   4.563   0.337
 1518SOL    HW1 4553   1.236   4.569   0.359
 1518SOL    HW2 4554   1.344   4.519   0.248
 1519SOL     OW 4555   1.780   5.447   1.143
 1519SOL    HW1 4556   1.844   5.475   1.071
 1519SOL    HW2 4557   1.747   5.355   1.125
 1520SOL     OW 4558   1.224   5.428   1.137
 1520SOL    HW1 4559   1.292   5.491   1.099
 1520SOL    HW2 4560   1.260   5.335   1.133
 1521SOL     OW 4561   0.084   4.992   1.022
 1521SOL    HW1 4562   0.085   4.983   1.121
 1521SOL    HW2 4563   0.004   4.944   0.985
 1522SOL     OW 4564   0.709   5.386   1.754
 1522SOL    HW1 4565   0.617   5.406   1.720
 1522SOL    HW2 4566   0.775   5.388   1.679
 1523SOL     OW 4567   0.942   3.802   0.135
 1523SOL    HW1 4568   1.009   3.821   0.063
 1523SOL    HW2 4569   0.988   3.766   0.216
 1524SOL     OW 4570   1.751   3.874   0.508
 1524SOL    HW1 4571   1.822   3.866   0.439
 1524SOL    HW2 4572   1.722   3.782   0.537
 1525SOL     OW 4573   1.353   5.312   0.472
 1525SOL    HW1 4574   1.413   5.322   0.393
 1525SOL    HW2 4575   1.327   5.402   0.506
 1526SOL     OW 4576   0.131   5.514   1.851
 1526SOL    HW1 4577   0.060   5.450   1.880
 1526SOL    HW2 4578   0.173   5.557   1.931
 1527SOL     OW 4579   1.271   4.626   0.647
 1527SOL    HW1 4580   1.340   4.565   0.685
 1527SOL    HW2 4581   1.316   4.697   0.592
 1528SOL     OW 4582   0.788   4.962   1.420
 1528SOL    HW1 4583   0.772   5.022   1.498
 1528SOL    HW2 4584   0.713   4.970   1.355
 1529SOL     OW 4585   0.650   5.333   0.134
 1529SOL    HW1 4586   0.689   5.304   0.046
 1529SOL    HW2 4587   0.628   5.253   0.189
 1530SOL     OW 4588   1.636   5.486   1.382
 1530SOL    HW1 4589   1.691   5.487   1.298
 1530SOL    HW2 4590   1.594   5.575   1.395
 1531SOL     OW 4591   1.867   3.895   0.951
 1531SOL    HW1 4592   1.883   3.798   0.932
 1531SOL    HW2 4593   1.772   3.917   0.928
 1532SOL     OW 4594   0.249   4.001   0.704
 1532SOL    HW1 4595   0.172   4.058   0.674
 1532SOL    HW2 4596   0.250   3.996   0.804
 1533SOL     OW 4597   1.239   5.309   0.022
 1533SOL    HW1 4598   1.214   5.222   0.064
 1533SOL    HW2 4599   1.177   5.329   5.946
 1534SOL     OW 4600   0.831   4.716   1.358
 1534SOL    HW1 4601   0.883   4.715   1.273
 1534SOL    HW2 4602   0.813   4.811   1.386
 1535SOL     OW 4603   0.910   4.605   0.266
 1535SOL    HW1 4604   0.968   4.651   0.199
 1535SOL    HW2 4605   0.968   4.545   0.323
 1536SOL     OW 4606   1.506   5.388   0.052
 1536SOL    HW1 4607   1.417   5.344   0.060
 1536SOL    HW2 4608   1.534   5.391   5.957
 1537SOL     OW 4609   0.377   5.042   1.511
 1537SOL    HW1 4610   0.357   5.119   1.451
 1537SOL    HW2 4611   0.313   4.968   1.492
 1538SOL     OW 4612   1.629   5.022   1.303
 1538SOL    HW1 4613   1.682   5.008   1.386
 1538SOL    HW2 4614   1.565   5.097   1.316
 1539SOL     OW 4615   1.021   4.878   0.726
 1539SOL    HW1 4616   0.970   4.800   0.763
 1539SOL    HW2 4617   1.078   4.847   0.650
 1540SOL     OW 4618   0.979   3.968   0.984
 1540SOL    HW1 4619   0.959   3.939   0.890
 1540SOL    HW2 4620   1.001   3.888   1.039
 1541SOL     OW 4621   0.606   5.192   0.430
 1541SOL    HW1 4622   0.623   5.109   0.377
 1541SOL    HW2 4623   0.525   5.238   0.394
 1542SOL     OW 4624   1.715   4.120   1.354
 1542SOL    HW1 4625   1.784   4.186   1.383
 1542SOL    HW2 4626   1.753   4.058   1.286
 1543SOL     OW 4627   0.215   5.056   0.296
 1543SOL    HW1 4628   0.116   5.058   0.277
 1543SOL    HW2 4629   0.231   5.090   0.389
 1544SOL     OW 4630   0.108   4.782   1.742
 1544SOL    HW1 4631   0.042   4.708   1.752
 1544SOL    HW2 4632   0.201   4.747   1.754
 1545SOL     OW 4633   0.682   3.937   1.478
 1545SOL    HW1 4634   0.767   3.893   1.451
 1545SOL    HW2 4635   0.696   3.988   1.563
 1546SOL     OW 4636   0.089   4.129   0.046
 1546SOL    HW1 4637   0.039   4.048   0.015
 1546SOL    HW2 4638   0.114   4.185   5.968
 1547SOL     OW 4639   1.432   4.585   1.383
 1547SOL    HW1 4640   1.369   4.647   1.336
 1547SOL    HW2 4641   1.521   4.587   1.337
 1548SOL     OW 4642   0.073   3.966   0.292
 1548SOL    HW1 4643   0.091   4.038   0.225
 1548SOL    HW2 4644   0.143   3.896   0.287
 1549SOL     OW 4645   1.142   5.072   0.135
 1549SOL    HW1 4646   1.064   5.010   0.137
 1549SOL    HW2 4647   1.195   5.062   0.219
 1550SOL     OW 4648   0.628   4.531   1.418
 1550SOL    HW1 4649   0.679   4.615   1.401
 1550SOL    HW2 4650   0.691   4.458   1.441
 1551SOL     OW 4651   1.478   5.517   0.998
 1551SOL    HW1 4652   1.490   5.586   0.926
 1551SOL    HW2 4653   1.565   5.502   1.044
 1552SOL     OW 4654   0.705   4.284   1.706
 1552SOL    HW1 4655   0.735   4.346   1.778
 1552SOL    HW2 4656   0.725   4.189   1.733
 1553SOL     OW 4657   1.486   4.911   1.635
 1553SOL    HW1 4658   1.455   4.930   1.728
 1553SOL    HW2 4659   1.567   4.966   1.615
 1554SOL     OW 4660   0.371   5.442   1.543
 1554SOL    HW1 4661   0.290   5.500   1.539
 1554SOL    HW2 4662   0.354   5.366   1.606
 1555SOL     OW 4663   1.673   4.587   1.245
 1555SOL    HW1 4664   1.667   4.508   1.185
 1555SOL    HW2 4665   1.668   4.671   1.191
 1556SOL     OW 4666   1.207   4.053   0.439
 1556SOL    HW1 4667   1.275   3.982   0.420
 1556SOL    HW2 4668   1.229   4.097   0.526
 1557SOL     OW 4669   0.523   4.472   0.705
 1557SOL    HW1 4670   0.581   4.553   0.694
 1557SOL    HW2 4671   0.483   4.447   0.618
 1558SOL     OW 4672   1.732   4.108   1.652
 1558SOL    HW1 4673   1.749   4.079   1.558
 1558SOL    HW2 4674   1.658   4.053   1.691
 1559SOL     OW 4675   1.753   4.682   1.479
 1559SOL    HW1 4676   1.743   4.780   1.458
 1559SOL    HW2 4677   1.734   4.628   1.397
 1560SOL     OW 4678   0.817   5.137   0.010
 1560SOL    HW1 4679   0.836   5.094   0.098
 1560SOL    HW2 4680   0.893   5.198   5.987
 1561SOL     OW 4681   0.674   5.526   0.917
 1561SOL    HW1 4682   0.622   5.602   0.957
 1561SOL    HW2 4683   0.764   5.559   0.889
 1562SOL     OW 4684   0.870   4.707   0.879
 1562SOL    HW1 4685   0.942   4.644   0.906
 1562SOL    HW2 4686   0.846   4.765   0.957
 1563SOL     OW 4687   1.093   4.731   0.084
 1563SOL    HW1 4688   1.035   4.708   0.005
 1563SOL    HW2 4689   1.180   4.683   0.076
 1564SOL     OW 4690   1.822   5.309   0.846
 1564SOL    HW1 4691   1.744   5.312   0.784
 1564SOL    HW2 4692   1.805   5.241   0.918
 1565SOL     OW 4693   0.230   5.042   1.861
 1565SOL    HW1 4694   0.180   4.975   1.806
 1565SOL    HW2 4695   0.200   5.035   1.956
 1566SOL     OW 4696   0.101   4.957   0.653
 1566SOL    HW1 4697   0.081   4.935   0.749
 1566SOL    HW2 4698   0.180   4.904   0.623
 1567SOL     OW 4699   0.723   5.116   1.617
 1567SOL    HW1 4700   0.627   5.111   1.644
 1567SOL    HW2 4701   0.773   5.174   1.681
 1568SOL     OW 4702   1.817   3.891   1.228
 1568SOL    HW1 4703   1.820   3.797   1.264
 1568SOL    HW2 4704   1.844   3.891   1.132
 1569SOL     OW 4705   0.414   4.138   0.550
 1569SOL    HW1 4706   0.447   4.085   0.473
 1569SOL    HW2 4707   0.346   4.084   0.601
 1570SOL     OW 4708   1.696   5.196   1.089
 1570SOL    HW1 4709   1.618   5.172   1.031
 1570SOL    HW2 4710   1.703   5.132   1.166
 1571SOL     OW 4711   0.301   4.284   1.263
 1571SOL    HW1 4712   0.350   4.228   1.329
 1571SOL    HW2 4713   0.325   4.256   1.170
 1572SOL     OW 4714   0.813   5.289   0.696
 1572SOL    HW1 4715   0.841   5.341   0.615
 1572SOL    HW2 4716   0.731   5.236   0.676
 1573SOL     OW 4717   1.403   3.961   1.135
 1573SOL    HW1 4718   1.487   3.920   1.170
 1573SOL    HW2 4719   1.364   4.022   1.204
 1574SOL     OW 4720   1.036   3.745   1.131
 1574SOL    HW1 4721   0.965   3.684   1.095
 1574SOL    HW2 4722   1.118   3.691   1.152
 1575SOL     OW 4723   0.815   5.031   0.273
 1575SOL    HW1 4724   0.763   4.950   0.300
 1575SOL    HW2 4725   0.871   5.062   0.349
 1576SOL     OW 4726   0.653   5.289   1.279
 1576SOL    HW1 4727   0.646   5.368   1.341
 1576SOL    HW2 4728   0.745   5.286   1.240
 1577SOL     OW 4729   1.361   3.769   0.171
 1577SOL    HW1 4730   1.414   3.704   0.117
 1577SOL    HW2 4731   1.280   3.724   0.208
 1578SOL     OW 4732   1.292   4.158   0.680
 1578SOL    HW1 4733   1.254   4.251   0.680
 1578SOL    HW2 4734   1.300   4.126   0.774
 1579SOL     OW 4735   1.616   3.951   0.895
 1579SOL    HW1 4736   1.541   3.961   0.960
 1579SOL    HW2 4737   1.616   4.029   0.832
 1580SOL     OW 4738   0.010   4.824   0.328
 1580SOL    HW1 4739   0.090   4.804   0.271
 1580SOL    HW2 4740   0.014   4.769   0.412
 1581SOL     OW 4741   0.850   5.378   0.345
 1581SOL    HW1 4742   0.769   5.369   0.286
 1581SOL    HW2 4743   0.842   5.460   0.400
 1582SOL     OW 4744   0.244   4.357   2.008
 1582SOL    HW1 4745   0.159   4.370   2.059
 1582SOL    HW2 4746   0.223   4.328   1.915
 1583SOL     OW 4747   0.214   3.987   2.837
 1583SOL    HW1 4748   0.234   3.949   2.927
 1583SOL    HW2 4749   0.117   4.006   2.829
 1584SOL     OW 4750   0.022   4.078   2.492
 1584SOL    HW1 4751   5.957   4.110   2.561
 1584SOL    HW2 4752   5.972   4.055   2.409
 1585SOL     OW 4753   0.570   4.957   3.094
 1585SOL    HW1 4754   0.477   4.930   3.073
 1585SOL    HW2 4755   0.577   5.057   3.094
 1586SOL     OW 4756   1.559   5.250   2.571
 1586SOL    HW1 4757   1.516   5.217   2.656
 1586SOL    HW2 4758   1.490   5.260   2.500
 1587SOL     OW 4759   1.124   4.414   2.503
 1587SOL    HW1 4760   1.172   4.500   2.518
 1587SOL    HW2 4761   1.042   4.411   2.561
 1588SOL     OW 4762   1.693   4.356   2.104
 1588SOL    HW1 4763   1.709   4.357   2.005
 1588SOL    HW2 4764   1.660   4.266   2.132
 1589SOL     OW 4765   0.763   4.883   2.913
 1589SOL    HW1 4766   0.687   4.897   2.976
 1589SOL    HW2 4767   0.789   4.970   2.871
 1590SOL     OW 4768   0.846   4.531   3.662
 1590SOL    HW1 4769   0.845   4.616   3.715
 1590SOL    HW2 4770   0.870   4.551   3.567
 1591SOL     OW 4771   0.659   4.706   2.558
 1591SOL    HW1 4772   0.734   4.706   2.625
 1591SOL    HW2 4773   0.602   4.787   2.571
 1592SOL     OW 4774   0.705   4.876   3.673
 1592SOL    HW1 4775   0.766   4.955   3.674
 1592SOL    HW2 4776   0.612   4.906   3.653
 1593SOL     OW 4777   0.351   5.127   2.889
 1593SOL    HW1 4778   0.259   5.107   2.856
 1593SOL    HW2 4779   0.391   5.199   2.832
 1594SOL     OW 4780   1.491   5.255   3.209
 1594SOL    HW1 4781   1.550   5.334   3.225
 1594SOL    HW2 4782   1.414   5.258   3.272
 1595SOL     OW 4783   0.413   4.130   3.356
 1595SOL    HW1 4784   0.494   4.083   3.322
 1595SOL    HW2 4785   0.338   4.064   3.367
 1596SOL     OW 4786   1.668   4.200   2.634
 1596SOL    HW1 4787   1.607   4.237   2.564
 1596SOL    HW2 4788   1.699   4.273   2.695
 1597SOL     OW 4789   0.274   5.409   2.363
 1597SOL    HW1 4790   0.288   5.498   2.405
 1597SOL    HW2 4791   0.318   5.407   2.273
 1598SOL     OW 4792   1.101   5.063   3.552
 1598SOL    HW1 4793   1.166   5.070   3.628
 1598SOL    HW2 4794   1.046   4.981   3.563
 1599SOL     OW 4795   0.243   5.162   2.449
 1599SOL    HW1 4796   0.275   5.255   2.432
 1599SOL    HW2 4797   0.144   5.162   2.458
 1600SOL     OW 4798   0.267   4.794   2.767
 1600SOL    HW1 4799   0.258   4.698   2.794
 1600SOL    HW2 4800   0.231   4.853   2.839
 1601SOL     OW 4801   0.638   5.507   3.310
 1601SOL    HW1 4802   0.547   5.482   3.343
 1601SOL    HW2 4803   0.652   5.605   3.323
 1602SOL     OW 4804   0.593   4.682   2.015
 1602SOL    HW1 4805   0.611   4.745   1.940
 1602SOL    HW2 4806   0.632   4.719   2.099
 1603SOL     OW 4807   1.649   3.865   3.344
 1603SOL    HW1 4808   1.650   3.952   3.296
 1603SOL    HW2 4809   1.595   3.873   3.428
 1604SOL     OW 4810   0.128   4.344   2.442
 1604SOL    HW1 4811   0.099   4.249   2.430
 1604SOL    HW2 4812   0.055   4.395   2.487
 1605SOL     OW 4813   1.872   5.462   2.206
 1605SOL    HW1 4814   1.926   5.443   2.288
 1605SOL    HW2 4815   1.876   5.560   2.185
 1606SOL     OW 4816   0.047   5.306   2.029
 1606SOL    HW1 4817   0.018   5.211   2.022
 1606SOL    HW2 4818   0.013   5.346   2.114
 1607SOL     OW 4819   1.673   4.654   2.496
 1607SOL    HW1 4820   1.755   4.607   2.465
 1607SOL    HW2 4821   1.654   4.731   2.435
 1608SOL     OW 4822   1.648   4.885   2.345
 1608SOL    HW1 4823   1.733   4.864   2.298
 1608SOL    HW2 4824   1.670   4.923   2.436
 1609SOL     OW 4825   0.095   4.487   3.551
 1609SOL    HW1 4826   0.174   4.500   3.611
 1609SOL    HW2 4827   0.112   4.530   3.463
 1610SOL     OW 4828   0.589   5.122   2.583
 1610SOL    HW1 4829   0.543   5.035   2.599
 1610SOL    HW2 4830   0.579   5.149   2.487
 1611SOL     OW 4831   1.289   4.934   3.309
 1611SOL    HW1 4832   1.310   4.882   3.227
 1611SOL    HW2 4833   1.355   4.911   3.381
 1612SOL     OW 4834   0.817   3.703   2.326
 1612SOL    HW1 4835   0.860   3.793   2.332
 1612SOL    HW2 4836   0.719   3.711   2.342
 1613SOL     OW 4837   0.218   4.704   3.085
 1613SOL    HW1 4838   0.306   4.657   3.077
 1613SOL    HW2 4839   0.154   4.666   3.019
 1614SOL     OW 4840   1.577   4.690   2.053
 1614SOL    HW1 4841   1.497   4.641   2.086
 1614SOL    HW2 4842   1.589   4.774   2.106
 1615SOL     OW 4843   1.219   5.546   3.475
 1615SOL    HW1 4844   1.176   5.581   3.391
 1615SOL    HW2 4845   1.242   5.450   3.463
 1616SOL     OW 4846   0.311   3.969   3.689
 1616SOL    HW1 4847   0.372   4.046   3.674
 1616SOL    HW2 4848   0.222   4.002   3.719
 1617SOL     OW 4849   1.476   5.137   2.792
 1617SOL    HW1 4850   1.411   5.159   2.865
 1617SOL    HW2 4851   1.484   5.038   2.783
 1618SOL     OW 4852   1.644   5.477   2.445
 1618SOL    HW1 4853   1.611   5.450   2.355
 1618SOL    HW2 4854   1.634   5.400   2.509
 1619SOL     OW 4855   0.630   4.434   2.146
 1619SOL    HW1 4856   0.640   4.516   2.091
 1619SOL    HW2 4857   0.557   4.447   2.213
 1620SOL     OW 4858   1.301   4.094   2.794
 1620SOL    HW1 4859   1.204   4.068   2.790
 1620SOL    HW2 4860   1.345   4.046   2.870
 1621SOL     OW 4861   1.594   5.393   2.190
 1621SOL    HW1 4862   1.693   5.402   2.200
 1621SOL    HW2 4863   1.570   5.392   2.093
 1622SOL     OW 4864   0.799   4.338   3.324
 1622SOL    HW1 4865   0.766   4.308   3.414
 1622SOL    HW2 4866   0.758   4.280   3.253
 1623SOL     OW 4867   1.388   4.247   3.553
 1623SOL    HW1 4868   1.362   4.280   3.645
 1623SOL    HW2 4869   1.459   4.178   3.562
 1624SOL     OW 4870   0.998   4.603   3.424
 1624SOL    HW1 4871   1.045   4.523   3.386
 1624SOL    HW2 4872   0.942   4.646   3.353
 1625SOL     OW 4873   0.988   4.091   3.106
 1625SOL    HW1 4874   0.909   4.150   3.122
 1625SOL    HW2 4875   0.986   4.058   3.012
 1626SOL     OW 4876   1.060   4.418   2.226
 1626SOL    HW1 4877   1.080   4.423   2.323
 1626SOL    HW2 4878   0.977   4.363   2.212
 1627SOL     OW 4879   0.039   4.525   2.636
 1627SOL    HW1 4880   0.137   4.504   2.643
 1627SOL    HW2 4881   0.027   4.619   2.605
 1628SOL     OW 4882   0.144   5.585   3.457
 1628SOL    HW1 4883   0.153   5.559   3.553
 1628SOL    HW2 4884   0.054   5.557   3.423
 1629SOL     OW 4885   0.883   4.057   2.018
 1629SOL    HW1 4886   0.926   4.116   1.950
 1629SOL    HW2 4887   0.917   3.963   2.009
 1630SOL     OW 4888   1.714   4.338   3.700
 1630SOL    HW1 4889   1.679   4.425   3.664
 1630SOL    HW2 4890   1.722   4.272   3.626
 1631SOL     OW 4891   1.382   4.883   2.425
 1631SOL    HW1 4892   1.468   4.874   2.375
 1631SOL    HW2 4893   1.308   4.906   2.361
 1632SOL     OW 4894   0.517   3.891   2.792
 1632SOL    HW1 4895   0.535   3.917   2.887
 1632SOL    HW2 4896   0.547   3.964   2.731
 1633SOL     OW 4897   1.028   5.208   2.309
 1633SOL    HW1 4898   0.962   5.264   2.259
 1633SOL    HW2 4899   1.061   5.258   2.389
 1634SOL     OW 4900   0.350   5.532   2.740
 1634SOL    HW1 4901   0.400   5.445   2.742
 1634SOL    HW2 4902   0.410   5.605   2.771
 1635SOL     OW 4903   1.809   4.783   2.761
 1635SOL    HW1 4904   1.772   4.823   2.677
 1635SOL    HW2 4905   1.737   4.779   2.830
 1636SOL     OW 4906   1.259   5.272   3.391
 1636SOL    HW1 4907   1.268   5.175   3.413
 1636SOL    HW2 4908   1.163   5.294   3.378
 1637SOL     OW 4909   0.322   4.683   2.114
 1637SOL    HW1 4910   0.422   4.680   2.112
 1637SOL    HW2 4911   0.284   4.600   2.073
 1638SOL     OW 4912   1.456   4.458   2.592
 1638SOL    HW1 4913   1.449   4.406   2.677
 1638SOL    HW2 4914   1.544   4.505   2.588
 1639SOL     OW 4915   0.484   5.014   3.622
 1639SOL    HW1 4916   0.449   5.016   3.528
 1639SOL    HW2 4917   0.408   5.010   3.687
 1640SOL     OW 4918   1.164   5.504   2.087
 1640SOL    HW1 4919   1.077   5.474   2.127
 1640SOL    HW2 4920   1.184   5.449   2.006
 1641SOL     OW 4921   0.196   3.956   3.346
 1641SOL    HW1 4922   0.113   4.010   3.328
 1641SOL    HW2 4923   0.171   3.872   3.394
 1642SOL     OW 4924   1.589   5.087   1.995
 1642SOL    HW1 4925   1.574   5.181   1.963
 1642SOL    HW2 4926   1.525   5.025   1.949
 1643SOL     OW 4927   0.447   5.460   2.167
 1643SOL    HW1 4928   0.487   5.514   2.242
 1643SOL    HW2 4929   0.520   5.411   2.119
 1644SOL     OW 4930   1.380   3.851   2.284
 1644SOL    HW1 4931   1.379   3.836   2.185
 1644SOL    HW2 4932   1.474   3.868   2.314
 1645SOL     OW 4933   0.224   5.505   3.073
 1645SOL    HW1 4934   0.288   5.429   3.087
 1645SOL    HW2 4935   0.191   5.503   2.978
 1646SOL     OW 4936   0.943   5.435   2.761
 1646SOL    HW1 4937   0.990   5.369   2.819
 1646SOL    HW2 4938   0.890   5.386   2.691
 1647SOL     OW 4939   0.385   4.413   2.319
 1647SOL    HW1 4940   0.401   4.316   2.337
 1647SOL    HW2 4941   0.288   4.434   2.335
 1648SOL     OW 4942   1.508   3.975   3.601
 1648SOL    HW1 4943   1.508   3.999   3.698
 1648SOL    HW2 4944   1.432   3.914   3.582
 1649SOL     OW 4945   0.617   3.821   1.933
 1649SOL    HW1 4946   0.713   3.797   1.916
 1649SOL    HW2 4947   0.560   3.787   1.859
 1650SOL     OW 4948   0.742   4.005   3.621
 1650SOL    HW1 4949   0.835   3.969   3.623
 1650SOL    HW2 4950   0.695   3.982   3.706
 1651SOL     OW 4951   0.915   5.261   3.043
 1651SOL    HW1 4952   0.868   5.217   2.967
 1651SOL    HW2 4953   0.991   5.203   3.074
 1652SOL     OW 4954   1.337   4.336   3.307
 1652SOL    HW1 4955   1.369   4.310   3.398
 1652SOL    HW2 4956   1.380   4.422   3.280
 1653SOL     OW 4957   0.778   5.114   2.787
 1653SOL    HW1 4958   0.859   5.150   2.740
 1653SOL    HW2 4959   0.705   5.098   2.721
 1654SOL     OW 4960   0.916   4.231   2.766
 1654SOL    HW1 4961   0.881   4.212   2.674
 1654SOL    HW2 4962   0.940   4.146   2.812
 1655SOL     OW 4963   0.557   3.782   2.342
 1655SOL    HW1 4964   0.481   3.785   2.406
 1655SOL    HW2 4965   0.560   3.867   2.290
 1656SOL     OW 4966   1.408   4.910   1.887
 1656SOL    HW1 4967   1.425   4.812   1.903
 1656SOL    HW2 4968   1.338   4.942   1.951
 1657SOL     OW 4969   0.262   3.758   2.045
 1657SOL    HW1 4970   0.306   3.826   1.986
 1657SOL    HW2 4971   0.331   3.697   2.083
 1658SOL     OW 4972   0.950   3.949   2.330
 1658SOL    HW1 4973   0.905   4.000   2.257
 1658SOL    HW2 4974   1.044   3.980   2.340
 1659SOL     OW 4975   1.084   4.380   3.301
 1659SOL    HW1 4976   1.022   4.302   3.312
 1659SOL    HW2 4977   1.179   4.348   3.309
 1660SOL     OW 4978   1.201   5.284   2.644
 1660SOL    HW1 4979   1.237   5.323   2.559
 1660SOL    HW2 4980   1.272   5.287   2.714
 1661SOL     OW 4981   0.466   4.889   2.607
 1661SOL    HW1 4982   0.389   4.853   2.659
 1661SOL    HW2 4983   0.442   4.894   2.510
 1662SOL     OW 4984   1.297   5.544   2.455
 1662SOL    HW1 4985   1.311   5.610   2.381
 1662SOL    HW2 4986   1.264   5.592   2.537
 1663SOL     OW 4987   1.020   4.248   1.815
 1663SOL    HW1 4988   0.969   4.333   1.805
 1663SOL    HW2 4989   1.080   4.254   1.894
 1664SOL     OW 4990   0.088   4.269   3.297
 1664SOL    HW1 4991   0.162   4.273   3.230
 1664SOL    HW2 4992   0.084   4.354   3.349
 1665SOL     OW 4993   0.556   3.967   3.053
 1665SOL    HW1 4994   0.616   3.902   3.101
 1665SOL    HW2 4995   0.461   3.944   3.072
 1666SOL     OW 4996   0.862   4.143   2.521
 1666SOL    HW1 4997   0.799   4.186   2.457
 1666SOL    HW2 4998   0.908   4.065   2.477
 1667SOL     OW 4999   0.977   3.797   2.612
 1667SOL    HW1 5000   0.941   3.765   2.524
 1667SOL    HW2 5001   0.999   3.718   2.669
 1668SOL     OW 5002   1.442   4.866   2.739
 1668SOL    HW1 5003   1.360   4.821   2.774
 1668SOL    HW2 5004   1.442   4.864   2.639
 1669SOL     OW 5005   1.462   4.318   2.819
 1669SOL    HW1 5006   1.416   4.229   2.812
 1669SOL    HW2 5007   1.535   4.312   2.888
 1670SOL     OW 5008   1.893   4.532   2.222
 1670SOL    HW1 5009   1.923   4.473   2.297
 1670SOL    HW2 5010   1.828   4.483   2.164
 1671SOL     OW 5011   0.492   5.121   2.055
 1671SOL    HW1 5012   0.403   5.096   2.092
 1671SOL    HW2 5013   0.488   5.117   1.955
 1672SOL     OW 5014   1.717   5.015   2.577
 1672SOL    HW1 5015   1.807   5.027   2.536
 1672SOL    HW2 5016   1.666   5.101   2.571
 1673SOL     OW 5017   1.383   4.309   1.953
 1673SOL    HW1 5018   1.307   4.270   2.006
 1673SOL    HW2 5019   1.469   4.278   1.993
 1674SOL     OW 5020   0.527   3.986   2.172
 1674SOL    HW1 5021   0.552   3.926   2.097
 1674SOL    HW2 5022   0.514   4.079   2.137
 1675SOL     OW 5023   1.744   5.004   3.437
 1675SOL    HW1 5024   1.818   4.939   3.454
 1675SOL    HW2 5025   1.775   5.096   3.460
 1676SOL     OW 5026   1.063   5.058   3.221
 1676SOL    HW1 5027   0.969   5.036   3.248
 1676SOL    HW2 5028   1.127   5.017   3.285
 1677SOL     OW 5029   1.609   5.396   3.516
 1677SOL    HW1 5030   1.607   5.418   3.418
 1677SOL    HW2 5031   1.693   5.346   3.537
 1678SOL     OW 5032   1.070   4.893   2.986
 1678SOL    HW1 5033   1.070   4.956   3.064
 1678SOL    HW2 5034   1.052   4.945   2.902
 1679SOL     OW 5035   1.627   4.813   2.953
 1679SOL    HW1 5036   1.627   4.892   3.014
 1679SOL    HW2 5037   1.560   4.827   2.880
 1680SOL     OW 5038   0.911   3.804   3.282
 1680SOL    HW1 5039   0.926   3.775   3.187
 1680SOL    HW2 5040   0.990   3.857   3.313
 1681SOL     OW 5041   0.953   4.826   3.571
 1681SOL    HW1 5042   0.854   4.827   3.584
 1681SOL    HW2 5043   0.978   4.755   3.505
 1682SOL     OW 5044   0.739   4.787   2.273
 1682SOL    HW1 5045   0.728   4.755   2.368
 1682SOL    HW2 5046   0.813   4.735   2.229
 1683SOL     OW 5047   0.417   4.532   3.095
 1683SOL    HW1 5048   0.492   4.537   3.161
 1683SOL    HW2 5049   0.371   4.444   3.102
 1684SOL     OW 5050   1.267   4.146   3.143
 1684SOL    HW1 5051   1.294   4.228   3.195
 1684SOL    HW2 5052   1.168   4.138   3.143
 1685SOL     OW 5053   0.089   5.277   3.212
 1685SOL    HW1 5054   0.035   5.338   3.155
 1685SOL    HW2 5055   0.182   5.313   3.221
 1686SOL     OW 5056   0.408   4.885   2.343
 1686SOL    HW1 5057   0.387   4.934   2.258
 1686SOL    HW2 5058   0.359   4.798   2.344
 1687SOL     OW 5059   0.586   4.250   2.716
 1687SOL    HW1 5060   0.570   4.325   2.652
 1687SOL    HW2 5061   0.650   4.279   2.787
 1688SOL     OW 5062   1.255   5.090   2.212
 1688SOL    HW1 5063   1.317   5.138   2.275
 1688SOL    HW2 5064   1.161   5.118   2.231
 1689SOL     OW 5065   1.327   5.183   3.010
 1689SOL    HW1 5066   1.385   5.208   3.087
 1689SOL    HW2 5067   1.269   5.106   3.036
 1690SOL     OW 5068   1.632   4.363   2.377
 1690SOL    HW1 5069   1.545   4.390   2.417
 1690SOL    HW2 5070   1.641   4.405   2.287
 1691SOL     OW 5071   0.370   5.283   3.126
 1691SOL    HW1 5072   0.375   5.222   3.047
 1691SOL    HW2 5073   0.462   5.293   3.165
 1692SOL     OW 5074   0.418   4.482   3.440
 1692SOL    HW1 5075   0.489   4.525   3.384
 1692SOL    HW2 5076   0.456   4.402   3.486
 1693SOL     OW 5077   1.634   4.549   3.545
 1693SOL    HW1 5078   1.535   4.550   3.532
 1693SOL    HW2 5079   1.678   4.589   3.464
 1694SOL     OW 5080   0.994   3.879   3.618
 1694SOL    HW1 5081   1.075   3.923   3.581
 1694SOL    HW2 5082   0.992   3.783   3.589
 1695SOL     OW 5083   0.454   3.719   3.620
 1695SOL    HW1 5084   0.416   3.670   3.542
 1695SOL    HW2 5085   0.403   3.804   3.634
 1696SOL     OW 5086   0.577   4.572   2.868
 1696SOL    HW1 5087   0.630   4.656   2.871
 1696SOL    HW2 5088   0.516   4.569   2.947
 1697SOL     OW 5089   1.325   4.553   2.922
 1697SOL    HW1 5090   1.243   4.565   2.866
 1697SOL    HW2 5091   1.371   4.468   2.895
 1698SOL     OW 5092   1.187   4.217   2.096
 1698SOL    HW1 5093   1.207   4.142   2.160
 1698SOL    HW2 5094   1.153   4.296   2.146
 1699SOL     OW 5095   0.301   3.908   3.092
 1699SOL    HW1 5096   0.254   3.936   3.175
 1699SOL    HW2 5097   0.282   3.811   3.074
 1700SOL     OW 5098   0.064   5.014   3.150
 1700SOL    HW1 5099   0.110   4.960   3.220
 1700SOL    HW2 5100   0.067   5.111   3.174
 1701SOL     OW 5101   0.750   4.365   2.932
 1701SOL    HW1 5102   0.817   4.332   2.865
 1701SOL    HW2 5103   0.706   4.448   2.896
 1702SOL     OW 5104   1.782   4.695   3.718
 1702SOL    HW1 5105   1.743   4.628   3.655
 1702SOL    HW2 5106   1.726   4.701   3.800
 1703SOL     OW 5107   0.320   3.776   2.487
 1703SOL    HW1 5108   0.292   3.871   2.502
 1703SOL    HW2 5109   0.336   3.732   2.576
 1704SOL     OW 5110   1.587   4.133   2.234
 1704SOL    HW1 5111   1.628   4.053   2.279
 1704SOL    HW2 5112   1.575   4.206   2.300
 1705SOL     OW 5113   1.031   4.506   2.818
 1705SOL    HW1 5114   1.032   4.514   2.918
 1705SOL    HW2 5115   0.996   4.416   2.793
 1706SOL     OW 5116   1.000   5.314   3.578
 1706SOL    HW1 5117   0.961   5.349   3.494
 1706SOL    HW2 5118   1.025   5.218   3.566
 1707SOL     OW 5119   1.843   5.251   3.500
 1707SOL    HW1 5120   1.863   5.254   3.402
 1707SOL    HW2 5121   1.928   5.259   3.552
 1708SOL     OW 5122   0.351   4.673   3.645
 1708SOL    HW1 5123   0.421   4.682   3.716
 1708SOL    HW2 5124   0.384   4.614   3.572
 1709SOL     OW 5125   1.544   4.004   2.005
 1709SOL    HW1 5126   1.495   3.917   2.012
 1709SOL    HW2 5127   1.556   4.044   2.096
 1710SOL     OW 5128   1.307   4.564   1.914
 1710SOL    HW1 5129   1.330   4.467   1.922
 1710SOL    HW2 5130   1.328   4.596   1.822
 1711SOL     OW 5131   1.070   5.083   2.766
 1711SOL    HW1 5132   1.060   5.009   2.699
 1711SOL    HW2 5133   1.117   5.160   2.722
 1712SOL     OW 5134   0.289   4.520   2.798
 1712SOL    HW1 5135   0.386   4.540   2.781
 1712SOL    HW2 5136   0.280   4.423   2.823
 1713SOL     OW 5137   0.371   4.205   2.860
 1713SOL    HW1 5138   0.334   4.112   2.862
 1713SOL    HW2 5139   0.447   4.210   2.796
 1714SOL     OW 5140   1.187   4.073   3.562
 1714SOL    HW1 5141   1.110   4.125   3.599
 1714SOL    HW2 5142   1.262   4.135   3.540
 1715SOL     OW 5143   1.148   3.920   3.351
 1715SOL    HW1 5144   1.168   3.980   3.429
 1715SOL    HW2 5145   1.190   3.958   3.268
 1716SOL     OW 5146   5.974   5.052   2.064
 1716SOL    HW1 5147   5.879   5.044   2.035
 1716SOL    HW2 5148   0.005   4.965   2.102
 1717SOL     OW 5149   0.103   5.502   2.818
 1717SOL    HW1 5150   0.053   5.432   2.767
 1717SOL    HW2 5151   0.193   5.515   2.777
 1718SOL     OW 5152   0.502   5.311   2.756
 1718SOL    HW1 5153   0.581   5.368   2.778
 1718SOL    HW2 5154   0.530   5.238   2.693
 1719SOL     OW 5155   0.983   4.517   3.078
 1719SOL    HW1 5156   1.041   4.509   3.159
 1719SOL    HW2 5157   0.898   4.466   3.093
 1720SOL     OW 5158   5.997   4.252   3.030
 1720SOL    HW1 5159   0.042   4.177   2.982
 1720SOL    HW2 5160   0.024   4.251   3.127
 1721SOL     OW 5161   0.231   4.247   3.582
 1721SOL    HW1 5162   0.289   4.218   3.506
 1721SOL    HW2 5163   0.175   4.324   3.553
 1722SOL     OW 5164   1.378   4.640   3.514
 1722SOL    HW1 5165   1.410   4.734   3.522
 1722SOL    HW2 5166   1.366   4.616   3.417
 1723SOL     OW 5167   0.843   4.283   2.175
 1723SOL    HW1 5168   0.836   4.198   2.122
 1723SOL    HW2 5169   0.758   4.334   2.168
 1724SOL     OW 5170   1.631   4.305   3.031
 1724SOL    HW1 5171   1.615   4.284   3.127
 1724SOL    HW2 5172   1.728   4.291   3.009
 1725SOL     OW 5173   0.293   5.301   3.629
 1725SOL    HW1 5174   0.239   5.373   3.674
 1725SOL    HW2 5175   0.251   5.212   3.645
 1726SOL     OW 5176   0.674   4.204   3.131
 1726SOL    HW1 5177   0.641   4.112   3.108
 1726SOL    HW2 5178   0.695   4.254   3.046
 1727SOL     OW 5179   0.921   5.379   3.339
 1727SOL    HW1 5180   0.925   5.323   3.255
 1727SOL    HW2 5181   0.889   5.471   3.316
 1728SOL     OW 5182   0.497   4.221   2.052
 1728SOL    HW1 5183   0.557   4.296   2.083
 1728SOL    HW2 5184   0.404   4.256   2.042
 1729SOL     OW 5185   0.173   4.861   3.335
 1729SOL    HW1 5186   0.117   4.847   3.416
 1729SOL    HW2 5187   0.162   4.785   3.272
 1730SOL     OW 5188   1.306   4.759   3.088
 1730SOL    HW1 5189   1.328   4.686   3.024
 1730SOL    HW2 5190   1.213   4.791   3.072
 1731SOL     OW 5191   1.309   4.633   2.167
 1731SOL    HW1 5192   1.241   4.579   2.216
 1731SOL    HW2 5193   1.307   4.610   2.070
 1732SOL     OW 5194   1.785   5.440   3.027
 1732SOL    HW1 5195   1.857   5.472   2.964
 1732SOL    HW2 5196   1.750   5.352   2.996
 1733SOL     OW 5197   1.223   5.432   3.034
 1733SOL    HW1 5198   1.272   5.498   2.977
 1733SOL    HW2 5199   1.265   5.342   3.024
 1734SOL     OW 5200   0.076   5.015   2.875
 1734SOL    HW1 5201   0.079   5.001   2.974
 1734SOL    HW2 5202   0.014   4.948   2.834
 1735SOL     OW 5203   0.707   5.373   3.606
 1735SOL    HW1 5204   0.609   5.391   3.592
 1735SOL    HW2 5205   0.757   5.398   3.523
 1736SOL     OW 5206   1.693   3.895   2.349
 1736SOL    HW1 5207   1.770   3.891   2.287
 1736SOL    HW2 5208   1.682   3.807   2.395
 1737SOL     OW 5209   1.360   5.310   2.338
 1737SOL    HW1 5210   1.424   5.325   2.263
 1737SOL    HW2 5211   1.327   5.398   2.373
 1738SOL     OW 5212   0.133   5.509   3.709
 1738SOL    HW1 5213   0.061   5.448   3.740
 1738SOL    HW2 5214   0.174   5.555   3.787
 1739SOL     OW 5215   1.276   4.637   2.514
 1739SOL    HW1 5216   1.344   4.566   2.533
 1739SOL    HW2 5217   1.322   4.726   2.508
 1740SOL     OW 5218   0.790   4.972   3.262
 1740SOL    HW1 5219   0.770   5.034   3.337
 1740SOL    HW2 5220   0.711   4.968   3.201
 1741SOL     OW 5221   0.646   5.339   2.032
 1741SOL    HW1 5222   0.663   5.358   1.935
 1741SOL    HW2 5223   0.601   5.251   2.042
 1742SOL     OW 5224   1.633   5.488   3.250
 1742SOL    HW1 5225   1.689   5.483   3.168
 1742SOL    HW2 5226   1.587   5.577   3.253
 1743SOL     OW 5227   1.866   3.893   2.816
 1743SOL    HW1 5228   1.879   3.795   2.800
 1743SOL    HW2 5229   1.773   3.919   2.792
 1744SOL     OW 5230   0.269   4.016   2.567
 1744SOL    HW1 5231   0.177   4.042   2.540
 1744SOL    HW2 5232   0.271   3.997   2.665
 1745SOL     OW 5233   1.226   5.339   1.876
 1745SOL    HW1 5234   1.197   5.251   1.914
 1745SOL    HW2 5235   1.171   5.360   1.795
 1746SOL     OW 5236   0.847   4.718   3.233
 1746SOL    HW1 5237   0.894   4.709   3.146
 1746SOL    HW2 5238   0.821   4.814   3.247
 1747SOL     OW 5239   0.920   4.644   2.135
 1747SOL    HW1 5240   0.991   4.692   2.083
 1747SOL    HW2 5241   0.945   4.548   2.143
 1748SOL     OW 5242   1.502   5.394   1.934
 1748SOL    HW1 5243   1.405   5.369   1.939
 1748SOL    HW2 5244   1.532   5.391   1.838
 1749SOL     OW 5245   0.363   5.038   3.386
 1749SOL    HW1 5246   0.340   5.122   3.338
 1749SOL    HW2 5247   0.296   4.967   3.363
 1750SOL     OW 5248   1.629   5.018   3.158
 1750SOL    HW1 5249   1.678   4.992   3.242
 1750SOL    HW2 5250   1.564   5.091   3.179
 1751SOL     OW 5251   1.018   4.874   2.596
 1751SOL    HW1 5252   0.956   4.803   2.629
 1751SOL    HW2 5253   1.071   4.840   2.519
 1752SOL     OW 5254   0.974   3.969   2.840
 1752SOL    HW1 5255   0.968   3.930   2.749
 1752SOL    HW2 5256   0.974   3.896   2.909
 1753SOL     OW 5257   0.597   5.193   2.311
 1753SOL    HW1 5258   0.610   5.114   2.250
 1753SOL    HW2 5259   0.557   5.268   2.259
 1754SOL     OW 5260   1.716   4.118   3.227
 1754SOL    HW1 5261   1.786   4.184   3.253
 1754SOL    HW2 5262   1.750   4.060   3.153
 1755SOL     OW 5263   0.247   5.076   2.166
 1755SOL    HW1 5264   0.148   5.070   2.149
 1755SOL    HW2 5265   0.262   5.117   2.256
 1756SOL     OW 5266   0.110   4.782   3.604
 1756SOL    HW1 5267   0.047   4.706   3.615
 1756SOL    HW2 5268   0.204   4.749   3.611
 1757SOL     OW 5269   0.684   3.935   3.347
 1757SOL    HW1 5270   0.773   3.893   3.330
 1757SOL    HW2 5271   0.690   3.993   3.428
 1758SOL     OW 5272   0.081   4.101   1.896
 1758SOL    HW1 5273   5.984   4.093   1.876
 1758SOL    HW2 5274   0.124   4.161   1.828
 1759SOL     OW 5275   1.434   4.581   3.246
 1759SOL    HW1 5276   1.368   4.639   3.198
 1759SOL    HW2 5277   1.522   4.586   3.201
 1760SOL     OW 5278   0.075   3.915   2.189
 1760SOL    HW1 5279   0.057   4.003   2.145
 1760SOL    HW2 5280   0.150   3.869   2.142
 1761SOL     OW 5281   1.185   5.086   1.962
 1761SOL    HW1 5282   1.123   5.008   1.962
 1761SOL    HW2 5283   1.228   5.095   2.052
 1762SOL     OW 5284   0.629   4.539   3.286
 1762SOL    HW1 5285   0.680   4.623   3.268
 1762SOL    HW2 5286   0.693   4.465   3.308
 1763SOL     OW 5287   1.486   5.514   2.853
 1763SOL    HW1 5288   1.495   5.592   2.791
 1763SOL    HW2 5289   1.566   5.508   2.912
 1764SOL     OW 5290   0.705   4.280   3.565
 1764SOL    HW1 5291   0.734   4.341   3.639
 1764SOL    HW2 5292   0.719   4.185   3.592
 1765SOL     OW 5293   1.477   4.916   3.492
 1765SOL    HW1 5294   1.450   4.931   3.587
 1765SOL    HW2 5295   1.561   4.966   3.473
 1766SOL     OW 5296   0.378   5.438   3.413
 1766SOL    HW1 5297   0.295   5.492   3.403
 1766SOL    HW2 5298   0.365   5.369   3.485
 1767SOL     OW 5299   1.672   4.592   3.093
 1767SOL    HW1 5300   1.665   4.509   3.037
 1767SOL    HW2 5301   1.666   4.672   3.034
 1768SOL     OW 5302   1.218   4.057   2.309
 1768SOL    HW1 5303   1.278   3.979   2.294
 1768SOL    HW2 5304   1.248   4.107   2.391
 1769SOL     OW 5305   0.536   4.453   2.549
 1769SOL    HW1 5306   0.582   4.541   2.544
 1769SOL    HW2 5307   0.481   4.439   2.467
 1770SOL     OW 5308   1.727   4.111   3.514
 1770SOL    HW1 5309   1.745   4.081   3.421
 1770SOL    HW2 5310   1.655   4.055   3.554
 1771SOL     OW 5311   1.751   4.682   3.331
 1771SOL    HW1 5312   1.759   4.780   3.314
 1771SOL    HW2 5313   1.731   4.635   3.245
 1772SOL     OW 5314   0.849   5.127   1.872
 1772SOL    HW1 5315   0.845   5.111   1.971
 1772SOL    HW2 5316   0.895   5.214   1.855
 1773SOL     OW 5317   0.673   5.516   2.808
 1773SOL    HW1 5318   0.623   5.601   2.822
 1773SOL    HW2 5319   0.767   5.537   2.780
 1774SOL     OW 5320   0.859   4.706   2.729
 1774SOL    HW1 5321   0.929   4.639   2.754
 1774SOL    HW2 5322   0.835   4.761   2.808
 1775SOL     OW 5323   1.087   4.758   1.932
 1775SOL    HW1 5324   1.043   4.785   1.846
 1775SOL    HW2 5325   1.150   4.682   1.915
 1776SOL     OW 5326   1.824   5.307   2.716
 1776SOL    HW1 5327   1.741   5.307   2.661
 1776SOL    HW2 5328   1.813   5.244   2.793
 1777SOL     OW 5329   0.227   5.034   3.726
 1777SOL    HW1 5330   0.176   4.970   3.668
 1777SOL    HW2 5331   0.193   5.028   3.820
 1778SOL     OW 5332   0.106   4.940   2.501
 1778SOL    HW1 5333   0.079   4.960   2.595
 1778SOL    HW2 5334   0.188   4.992   2.478
 1779SOL     OW 5335   0.724   5.111   3.472
 1779SOL    HW1 5336   0.629   5.097   3.501
 1779SOL    HW2 5337   0.769   5.174   3.535
 1780SOL     OW 5338   1.810   3.896   3.088
 1780SOL    HW1 5339   1.817   3.804   3.128
 1780SOL    HW2 5340   1.845   3.894   2.995
 1781SOL     OW 5341   0.421   4.158   2.387
 1781SOL    HW1 5342   0.453   4.084   2.328
 1781SOL    HW2 5343   0.359   4.121   2.456
 1782SOL     OW 5344   1.699   5.193   2.958
 1782SOL    HW1 5345   1.622   5.177   2.897
 1782SOL    HW2 5346   1.698   5.128   3.033
 1783SOL     OW 5347   0.301   4.287   3.120
 1783SOL    HW1 5348   0.353   4.235   3.188
 1783SOL    HW2 5349   0.325   4.255   3.029
 1784SOL     OW 5350   0.818   5.285   2.560
 1784SOL    HW1 5351   0.850   5.306   2.468
 1784SOL    HW2 5352   0.732   5.233   2.555
 1785SOL     OW 5353   1.406   3.963   2.997
 1785SOL    HW1 5354   1.488   3.915   3.030
 1785SOL    HW2 5355   1.371   4.022   3.069
 1786SOL     OW 5356   0.991   3.750   3.030
 1786SOL    HW1 5357   0.936   3.690   2.973
 1786SOL    HW2 5358   1.079   3.706   3.050
 1787SOL     OW 5359   0.843   5.010   2.202
 1787SOL    HW1 5360   0.796   4.925   2.224
 1787SOL    HW2 5361   0.896   5.041   2.281
 1788SOL     OW 5362   0.654   5.280   3.150
 1788SOL    HW1 5363   0.647   5.354   3.218
 1788SOL    HW2 5364   0.742   5.286   3.103
 1789SOL     OW 5365   1.376   3.791   2.016
 1789SOL    HW1 5366   1.407   3.754   1.929
 1789SOL    HW2 5367   1.305   3.732   2.054
 1790SOL     OW 5368   1.317   4.173   2.534
 1790SOL    HW1 5369   1.270   4.261   2.531
 1790SOL    HW2 5370   1.319   4.138   2.628
 1791SOL     OW 5371   1.611   3.951   2.754
 1791SOL    HW1 5372   1.549   3.957   2.833
 1791SOL    HW2 5373   1.606   4.035   2.701
 1792SOL     OW 5374   0.080   4.832   2.166
 1792SOL    HW1 5375   0.165   4.787   2.139
 1792SOL    HW2 5376   0.052   4.798   2.256
 1793SOL     OW 5377   0.883   5.370   2.142
 1793SOL    HW1 5378   0.794   5.348   2.102
 1793SOL    HW2 5379   0.873   5.446   2.206
 1794SOL     OW 5380   0.248   4.354   3.873
 1794SOL    HW1 5381   0.161   4.366   3.920
 1794SOL    HW2 5382   0.232   4.327   3.778
 1795SOL     OW 5383   0.212   3.989   4.696
 1795SOL    HW1 5384   0.233   3.950   4.786
 1795SOL    HW2 5385   0.114   4.007   4.690
 1796SOL     OW 5386   0.023   4.078   4.356
 1796SOL    HW1 5387   5.955   4.109   4.423
 1796SOL    HW2 5388   5.978   4.061   4.269
 1797SOL     OW 5389   0.563   4.974   4.941
 1797SOL    HW1 5390   0.468   4.956   4.913
 1797SOL    HW2 5391   0.578   5.072   4.946
 1798SOL     OW 5392   1.564   5.253   4.436
 1798SOL    HW1 5393   1.521   5.222   4.521
 1798SOL    HW2 5394   1.495   5.259   4.364
 1799SOL     OW 5395   1.129   4.419   4.361
 1799SOL    HW1 5396   1.178   4.504   4.377
 1799SOL    HW2 5397   1.046   4.416   4.417
 1800SOL     OW 5398   1.693   4.355   3.966
 1800SOL    HW1 5399   1.709   4.359   3.867
 1800SOL    HW2 5400   1.662   4.264   3.992
 1801SOL     OW 5401   0.771   4.884   4.779
 1801SOL    HW1 5402   0.690   4.897   4.835
 1801SOL    HW2 5403   0.797   4.970   4.736
 1802SOL     OW 5404   0.818   4.503   5.539
 1802SOL    HW1 5405   0.790   4.560   5.617
 1802SOL    HW2 5406   0.853   4.562   5.466
 1803SOL     OW 5407   0.661   4.703   4.424
 1803SOL    HW1 5408   0.736   4.702   4.490
 1803SOL    HW2 5409   0.606   4.785   4.436
 1804SOL     OW 5410   0.715   4.879   5.535
 1804SOL    HW1 5411   0.770   4.961   5.549
 1804SOL    HW2 5412   0.619   4.906   5.520
 1805SOL     OW 5413   0.351   5.126   4.750
 1805SOL    HW1 5414   0.261   5.097   4.715
 1805SOL    HW2 5415   0.389   5.196   4.690
 1806SOL     OW 5416   1.494   5.254   5.088
 1806SOL    HW1 5417   1.544   5.341   5.097
 1806SOL    HW2 5418   1.419   5.252   5.153
 1807SOL     OW 5419   0.417   4.123   5.233
 1807SOL    HW1 5420   0.498   4.072   5.203
 1807SOL    HW2 5421   0.340   4.061   5.243
 1808SOL     OW 5422   1.672   4.200   4.493
 1808SOL    HW1 5423   1.607   4.238   4.428
 1808SOL    HW2 5424   1.700   4.271   4.558
 1809SOL     OW 5425   0.280   5.404   4.222
 1809SOL    HW1 5426   0.296   5.493   4.265
 1809SOL    HW2 5427   0.322   5.404   4.131
 1810SOL     OW 5428   1.107   5.061   5.439
 1810SOL    HW1 5429   1.190   5.044   5.492
 1810SOL    HW2 5430   1.052   4.978   5.435
 1811SOL     OW 5431   0.250   5.159   4.312
 1811SOL    HW1 5432   0.279   5.253   4.293
 1811SOL    HW2 5433   0.150   5.155   4.314
 1812SOL     OW 5434   0.267   4.797   4.622
 1812SOL    HW1 5435   0.265   4.702   4.655
 1812SOL    HW2 5436   0.222   4.856   4.688
 1813SOL     OW 5437   0.637   5.499   5.182
 1813SOL    HW1 5438   0.546   5.475   5.215
 1813SOL    HW2 5439   0.651   5.598   5.192
 1814SOL     OW 5440   0.576   4.687   3.877
 1814SOL    HW1 5441   0.610   4.746   3.803
 1814SOL    HW2 5442   0.622   4.712   3.962
 1815SOL     OW 5443   1.640   3.876   5.193
 1815SOL    HW1 5444   1.650   3.969   5.157
 1815SOL    HW2 5445   1.591   3.880   5.280
 1816SOL     OW 5446   0.124   4.347   4.302
 1816SOL    HW1 5447   0.098   4.251   4.297
 1816SOL    HW2 5448   0.048   4.400   4.339
 1817SOL     OW 5449   1.877   5.462   4.065
 1817SOL    HW1 5450   1.924   5.444   4.151
 1817SOL    HW2 5451   1.880   5.559   4.044
 1818SOL     OW 5452   0.046   5.309   3.887
 1818SOL    HW1 5453   0.017   5.214   3.882
 1818SOL    HW2 5454   0.019   5.348   3.975
 1819SOL     OW 5455   1.678   4.663   4.361
 1819SOL    HW1 5456   1.751   4.604   4.328
 1819SOL    HW2 5457   1.664   4.738   4.298
 1820SOL     OW 5458   1.645   4.886   4.203
 1820SOL    HW1 5459   1.726   4.866   4.147
 1820SOL    HW2 5460   1.674   4.923   4.291
 1821SOL     OW 5461   0.090   4.508   5.411
 1821SOL    HW1 5462   0.175   4.506   5.464
 1821SOL    HW2 5463   0.109   4.540   5.318
 1822SOL     OW 5464   0.592   5.115   4.445
 1822SOL    HW1 5465   0.543   5.029   4.459
 1822SOL    HW2 5466   0.581   5.145   4.350
 1823SOL     OW 5467   1.285   4.943   5.175
 1823SOL    HW1 5468   1.307   4.886   5.095
 1823SOL    HW2 5469   1.356   4.931   5.245
 1824SOL     OW 5470   0.824   3.714   4.169
 1824SOL    HW1 5471   0.868   3.803   4.183
 1824SOL    HW2 5472   0.729   3.719   4.200
 1825SOL     OW 5473   0.220   4.707   4.938
 1825SOL    HW1 5474   0.307   4.657   4.933
 1825SOL    HW2 5475   0.157   4.672   4.869
 1826SOL     OW 5476   1.571   4.688   3.917
 1826SOL    HW1 5477   1.493   4.638   3.953
 1826SOL    HW2 5478   1.587   4.770   3.972
 1827SOL     OW 5479   1.207   5.529   5.345
 1827SOL    HW1 5480   1.179   5.573   5.260
 1827SOL    HW2 5481   1.224   5.432   5.329
 1828SOL     OW 5482   0.319   3.970   5.545
 1828SOL    HW1 5483   0.375   4.046   5.513
 1828SOL    HW2 5484   0.228   4.004   5.571
 1829SOL     OW 5485   1.476   5.144   4.657
 1829SOL    HW1 5486   1.408   5.165   4.727
 1829SOL    HW2 5487   1.479   5.046   4.641
 1830SOL     OW 5488   1.650   5.477   4.305
 1830SOL    HW1 5489   1.609   5.451   4.218
 1830SOL    HW2 5490   1.639   5.402   4.371
 1831SOL     OW 5491   0.630   4.432   4.010
 1831SOL    HW1 5492   0.638   4.514   3.954
 1831SOL    HW2 5493   0.556   4.444   4.076
 1832SOL     OW 5494   1.302   4.093   4.660
 1832SOL    HW1 5495   1.206   4.068   4.654
 1832SOL    HW2 5496   1.345   4.043   4.736
 1833SOL     OW 5497   1.594   5.389   4.053
 1833SOL    HW1 5498   1.692   5.400   4.065
 1833SOL    HW2 5499   1.572   5.390   3.955
 1834SOL     OW 5500   0.797   4.335   5.183
 1834SOL    HW1 5501   0.760   4.309   5.272
 1834SOL    HW2 5502   0.759   4.274   5.113
 1835SOL     OW 5503   1.401   4.244   5.411
 1835SOL    HW1 5504   1.389   4.272   5.506
 1835SOL    HW2 5505   1.451   4.157   5.409
 1836SOL     OW 5506   0.982   4.603   5.286
 1836SOL    HW1 5507   1.026   4.521   5.249
 1836SOL    HW2 5508   0.927   4.647   5.215
 1837SOL     OW 5509   0.993   4.091   4.970
 1837SOL    HW1 5510   0.912   4.147   4.986
 1837SOL    HW2 5511   0.988   4.051   4.878
 1838SOL     OW 5512   1.057   4.417   4.091
 1838SOL    HW1 5513   1.077   4.422   4.189
 1838SOL    HW2 5514   0.974   4.363   4.076
 1839SOL     OW 5515   0.038   4.528   4.499
 1839SOL    HW1 5516   0.134   4.502   4.499
 1839SOL    HW2 5517   0.030   4.625   4.473
 1840SOL     OW 5518   0.132   5.576   5.302
 1840SOL    HW1 5519   0.139   5.561   5.401
 1840SOL    HW2 5520   0.037   5.562   5.272
 1841SOL     OW 5521   0.883   4.055   3.872
 1841SOL    HW1 5522   0.925   4.115   3.805
 1841SOL    HW2 5523   0.922   3.963   3.863
 1842SOL     OW 5524   1.700   4.341   5.565
 1842SOL    HW1 5525   1.676   4.425   5.516
 1842SOL    HW2 5526   1.706   4.265   5.501
 1843SOL     OW 5527   1.381   4.882   4.288
 1843SOL    HW1 5528   1.467   4.871   4.238
 1843SOL    HW2 5529   1.312   4.919   4.227
 1844SOL     OW 5530   0.521   3.890   4.655
 1844SOL    HW1 5531   0.543   3.925   4.746
 1844SOL    HW2 5532   0.540   3.961   4.586
 1845SOL     OW 5533   1.030   5.205   4.168
 1845SOL    HW1 5534   0.962   5.257   4.116
 1845SOL    HW2 5535   1.045   5.248   4.257
 1846SOL     OW 5536   0.355   5.526   4.602
 1846SOL    HW1 5537   0.408   5.442   4.606
 1846SOL    HW2 5538   0.411   5.603   4.631
 1847SOL     OW 5539   1.818   4.784   4.629
 1847SOL    HW1 5540   1.777   4.816   4.543
 1847SOL    HW2 5541   1.748   4.785   4.701
 1848SOL     OW 5542   1.256   5.266   5.238
 1848SOL    HW1 5543   1.268   5.172   5.270
 1848SOL    HW2 5544   1.160   5.281   5.215
 1849SOL     OW 5545   0.318   4.684   3.984
 1849SOL    HW1 5546   0.416   4.694   3.967
 1849SOL    HW2 5547   0.284   4.603   3.937
 1850SOL     OW 5548   1.455   4.457   4.454
 1850SOL    HW1 5549   1.452   4.399   4.535
 1850SOL    HW2 5550   1.545   4.501   4.449
 1851SOL     OW 5551   0.474   4.993   5.494
 1851SOL    HW1 5552   0.454   5.005   5.397
 1851SOL    HW2 5553   0.390   5.000   5.547
 1852SOL     OW 5554   1.166   5.506   3.952
 1852SOL    HW1 5555   1.084   5.473   4.000
 1852SOL    HW2 5556   1.178   5.453   3.869
 1853SOL     OW 5557   0.189   3.968   5.242
 1853SOL    HW1 5558   0.113   4.011   5.195
 1853SOL    HW2 5559   0.165   3.873   5.264
 1854SOL     OW 5560   1.584   5.086   3.860
 1854SOL    HW1 5561   1.577   5.179   3.825
 1854SOL    HW2 5562   1.523   5.026   3.808
 1855SOL     OW 5563   0.450   5.466   4.019
 1855SOL    HW1 5564   0.493   5.526   4.087
 1855SOL    HW2 5565   0.521   5.414   3.972
 1856SOL     OW 5566   1.377   3.852   4.146
 1856SOL    HW1 5567   1.376   3.835   4.047
 1856SOL    HW2 5568   1.471   3.869   4.176
 1857SOL     OW 5569   0.231   5.496   4.930
 1857SOL    HW1 5570   0.290   5.417   4.945
 1857SOL    HW2 5571   0.199   5.496   4.836
 1858SOL     OW 5572   0.948   5.430   4.614
 1858SOL    HW1 5573   1.000   5.360   4.663
 1858SOL    HW2 5574   0.889   5.385   4.547
 1859SOL     OW 5575   0.396   4.412   4.180
 1859SOL    HW1 5576   0.404   4.314   4.198
 1859SOL    HW2 5577   0.300   4.439   4.189
 1860SOL     OW 5578   1.500   3.970   5.452
 1860SOL    HW1 5579   1.512   3.996   5.548
 1860SOL    HW2 5580   1.422   3.909   5.443
 1861SOL     OW 5581   0.609   3.828   3.798
 1861SOL    HW1 5582   0.707   3.807   3.789
 1861SOL    HW2 5583   0.559   3.785   3.724
 1862SOL     OW 5584   0.734   4.012   5.489
 1862SOL    HW1 5585   0.822   3.964   5.489
 1862SOL    HW2 5586   0.676   3.976   5.561
 1863SOL     OW 5587   0.917   5.252   4.903
 1863SOL    HW1 5588   0.874   5.201   4.828
 1863SOL    HW2 5589   0.985   5.194   4.948
 1864SOL     OW 5590   1.344   4.336   5.168
 1864SOL    HW1 5591   1.378   4.309   5.258
 1864SOL    HW2 5592   1.380   4.426   5.143
 1865SOL     OW 5593   0.785   5.116   4.654
 1865SOL    HW1 5594   0.866   5.150   4.607
 1865SOL    HW2 5595   0.714   5.095   4.587
 1866SOL     OW 5596   0.919   4.227   4.631
 1866SOL    HW1 5597   0.883   4.207   4.540
 1866SOL    HW2 5598   0.943   4.142   4.677
 1867SOL     OW 5599   0.555   3.781   4.204
 1867SOL    HW1 5600   0.479   3.786   4.269
 1867SOL    HW2 5601   0.559   3.867   4.152
 1868SOL     OW 5602   1.406   4.906   3.749
 1868SOL    HW1 5603   1.434   4.812   3.766
 1868SOL    HW2 5604   1.346   4.936   3.823
 1869SOL     OW 5605   0.256   3.755   3.908
 1869SOL    HW1 5606   0.299   3.822   3.847
 1869SOL    HW2 5607   0.326   3.694   3.946
 1870SOL     OW 5608   0.949   3.952   4.196
 1870SOL    HW1 5609   0.910   4.002   4.118
 1870SOL    HW2 5610   1.043   3.981   4.211
 1871SOL     OW 5611   1.084   4.377   5.167
 1871SOL    HW1 5612   1.017   4.306   5.185
 1871SOL    HW2 5613   1.177   4.340   5.176
 1872SOL     OW 5614   1.207   5.279   4.506
 1872SOL    HW1 5615   1.237   5.318   4.419
 1872SOL    HW2 5616   1.280   5.287   4.574
 1873SOL     OW 5617   0.466   4.886   4.468
 1873SOL    HW1 5618   0.387   4.854   4.520
 1873SOL    HW2 5619   0.442   4.891   4.371
 1874SOL     OW 5620   1.299   5.540   4.316
 1874SOL    HW1 5621   1.314   5.608   4.244
 1874SOL    HW2 5622   1.265   5.586   4.398
 1875SOL     OW 5623   1.020   4.249   3.680
 1875SOL    HW1 5624   0.972   4.336   3.673
 1875SOL    HW2 5625   1.084   4.253   3.757
 1876SOL     OW 5626   0.085   4.276   5.146
 1876SOL    HW1 5627   0.160   4.252   5.085
 1876SOL    HW2 5628   0.098   4.368   5.182
 1877SOL     OW 5629   0.555   3.959   4.919
 1877SOL    HW1 5630   0.617   3.895   4.963
 1877SOL    HW2 5631   0.460   3.932   4.934
 1878SOL     OW 5632   0.865   4.145   4.386
 1878SOL    HW1 5633   0.798   4.192   4.329
 1878SOL    HW2 5634   0.905   4.069   4.335
 1879SOL     OW 5635   0.979   3.793   4.470
 1879SOL    HW1 5636   0.942   3.763   4.383
 1879SOL    HW2 5637   0.995   3.714   4.529
 1880SOL     OW 5638   1.445   4.882   4.608
 1880SOL    HW1 5639   1.367   4.821   4.625
 1880SOL    HW2 5640   1.461   4.889   4.509
 1881SOL     OW 5641   1.469   4.298   4.669
 1881SOL    HW1 5642   1.413   4.216   4.673
 1881SOL    HW2 5643   1.535   4.298   4.745
 1882SOL     OW 5644   1.887   4.533   4.089
 1882SOL    HW1 5645   1.921   4.472   4.161
 1882SOL    HW2 5646   1.824   4.482   4.030
 1883SOL     OW 5647   0.491   5.122   3.919
 1883SOL    HW1 5648   0.402   5.094   3.955
 1883SOL    HW2 5649   0.487   5.125   3.819
 1884SOL     OW 5650   1.720   5.016   4.436
 1884SOL    HW1 5651   1.810   5.030   4.395
 1884SOL    HW2 5652   1.668   5.102   4.432
 1885SOL     OW 5653   1.382   4.307   3.815
 1885SOL    HW1 5654   1.308   4.270   3.871
 1885SOL    HW2 5655   1.470   4.279   3.852
 1886SOL     OW 5656   0.523   3.986   4.037
 1886SOL    HW1 5657   0.542   3.922   3.963
 1886SOL    HW2 5658   0.513   4.078   3.999
 1887SOL     OW 5659   1.742   5.007   5.299
 1887SOL    HW1 5660   1.822   4.947   5.309
 1887SOL    HW2 5661   1.765   5.099   5.331
 1888SOL     OW 5662   1.057   5.067   5.080
 1888SOL    HW1 5663   0.969   5.040   5.118
 1888SOL    HW2 5664   1.131   5.022   5.129
 1889SOL     OW 5665   1.607   5.389   5.384
 1889SOL    HW1 5666   1.603   5.413   5.287
 1889SOL    HW2 5667   1.693   5.342   5.404
 1890SOL     OW 5668   1.069   4.895   4.864
 1890SOL    HW1 5669   1.065   4.966   4.935
 1890SOL    HW2 5670   1.045   4.935   4.776
 1891SOL     OW 5671   1.641   4.820   4.822
 1891SOL    HW1 5672   1.639   4.894   4.889
 1891SOL    HW2 5673   1.571   4.837   4.752
 1892SOL     OW 5674   0.917   3.801   5.152
 1892SOL    HW1 5675   0.928   3.781   5.054
 1892SOL    HW2 5676   0.995   3.855   5.183
 1893SOL     OW 5677   0.972   4.823   5.453
 1893SOL    HW1 5678   0.873   4.831   5.460
 1893SOL    HW2 5679   0.996   4.753   5.386
 1894SOL     OW 5680   0.731   4.785   4.127
 1894SOL    HW1 5681   0.725   4.757   4.223
 1894SOL    HW2 5682   0.809   4.739   4.084
 1895SOL     OW 5683   0.420   4.530   4.953
 1895SOL    HW1 5684   0.495   4.535   5.018
 1895SOL    HW2 5685   0.373   4.443   4.962
 1896SOL     OW 5686   1.277   4.152   4.994
 1896SOL    HW1 5687   1.305   4.230   5.050
 1896SOL    HW2 5688   1.179   4.158   4.974
 1897SOL     OW 5689   0.091   5.279   5.070
 1897SOL    HW1 5690   0.035   5.351   5.031
 1897SOL    HW2 5691   0.186   5.308   5.074
 1898SOL     OW 5692   0.410   4.884   4.204
 1898SOL    HW1 5693   0.390   4.934   4.120
 1898SOL    HW2 5694   0.362   4.797   4.203
 1899SOL     OW 5695   0.588   4.248   4.580
 1899SOL    HW1 5696   0.570   4.324   4.518
 1899SOL    HW2 5697   0.648   4.278   4.653
 1900SOL     OW 5698   1.259   5.069   4.103
 1900SOL    HW1 5699   1.326   5.135   4.137
 1900SOL    HW2 5700   1.167   5.099   4.128
 1901SOL     OW 5701   1.316   5.180   4.870
 1901SOL    HW1 5702   1.375   5.199   4.948
 1901SOL    HW2 5703   1.255   5.105   4.891
 1902SOL     OW 5704   1.633   4.364   4.242
 1902SOL    HW1 5705   1.538   4.373   4.269
 1902SOL    HW2 5706   1.648   4.407   4.153
 1903SOL     OW 5707   0.370   5.275   4.994
 1903SOL    HW1 5708   0.371   5.217   4.913
 1903SOL    HW2 5709   0.464   5.289   5.026
 1904SOL     OW 5710   0.409   4.469   5.287
 1904SOL    HW1 5711   0.484   4.510   5.234
 1904SOL    HW2 5712   0.446   4.397   5.346
 1905SOL     OW 5713   1.628   4.556   5.416
 1905SOL    HW1 5714   1.529   4.557   5.402
 1905SOL    HW2 5715   1.673   4.603   5.341
 1906SOL     OW 5716   0.966   3.873   5.495
 1906SOL    HW1 5717   1.043   3.933   5.475
 1906SOL    HW2 5718   0.987   3.780   5.465
 1907SOL     OW 5719   0.453   3.722   5.487
 1907SOL    HW1 5720   0.435   3.670   5.403
 1907SOL    HW2 5721   0.390   3.799   5.492
 1908SOL     OW 5722   0.593   4.570   4.724
 1908SOL    HW1 5723   0.641   4.658   4.727
 1908SOL    HW2 5724   0.527   4.566   4.800
 1909SOL     OW 5725   1.318   4.557   4.789
 1909SOL    HW1 5726   1.234   4.568   4.735
 1909SOL    HW2 5727   1.367   4.476   4.758
 1910SOL     OW 5728   1.188   4.216   3.963
 1910SOL    HW1 5729   1.201   4.141   4.028
 1910SOL    HW2 5730   1.154   4.296   4.012
 1911SOL     OW 5731   0.296   3.903   4.949
 1911SOL    HW1 5732   0.247   3.935   5.030
 1911SOL    HW2 5733   0.278   3.805   4.936
 1912SOL     OW 5734   0.046   5.011   5.025
 1912SOL    HW1 5735   0.110   4.964   5.086
 1912SOL    HW2 5736   0.056   5.110   5.035
 1913SOL     OW 5737   0.746   4.360   4.791
 1913SOL    HW1 5738   0.820   4.332   4.729
 1913SOL    HW2 5739   0.703   4.443   4.757
 1914SOL     OW 5740   1.765   4.709   5.609
 1914SOL    HW1 5741   1.733   4.640   5.544
 1914SOL    HW2 5742   1.694   4.725   5.678
 1915SOL     OW 5743   0.321   3.775   4.352
 1915SOL    HW1 5744   0.293   3.870   4.366
 1915SOL    HW2 5745   0.337   3.731   4.440
 1916SOL     OW 5746   1.585   4.132   4.097
 1916SOL    HW1 5747   1.624   4.051   4.141
 1916SOL    HW2 5748   1.573   4.205   4.165
 1917SOL     OW 5749   1.030   4.504   4.685
 1917SOL    HW1 5750   1.027   4.511   4.785
 1917SOL    HW2 5751   0.997   4.414   4.656
 1918SOL     OW 5752   0.999   5.303   5.463
 1918SOL    HW1 5753   0.966   5.346   5.379
 1918SOL    HW2 5754   1.041   5.215   5.441
 1919SOL     OW 5755   1.842   5.252   5.366
 1919SOL    HW1 5756   1.865   5.250   5.268
 1919SOL    HW2 5757   1.925   5.271   5.419
 1920SOL     OW 5758   0.377   4.661   5.499
 1920SOL    HW1 5759   0.445   4.664   5.572
 1920SOL    HW2 5760   0.410   4.603   5.424
 1921SOL     OW 5761   1.542   4.001   3.865
 1921SOL    HW1 5762   1.492   3.915   3.873
 1921SOL    HW2 5763   1.555   4.041   3.956
 1922SOL     OW 5764   1.308   4.560   3.778
 1922SOL    HW1 5765   1.333   4.464   3.782
 1922SOL    HW2 5766   1.328   4.596   3.687
 1923SOL     OW 5767   1.071   5.079   4.624
 1923SOL    HW1 5768   1.065   5.005   4.557
 1923SOL    HW2 5769   1.121   5.156   4.584
 1924SOL     OW 5770   0.294   4.529   4.673
 1924SOL    HW1 5771   0.389   4.540   4.645
 1924SOL    HW2 5772   0.275   4.433   4.692
 1925SOL     OW 5773   0.372   4.204   4.723
 1925SOL    HW1 5774   0.330   4.113   4.722
 1925SOL    HW2 5775   0.450   4.204   4.660
 1926SOL     OW 5776   1.171   4.097   5.408
 1926SOL    HW1 5777   1.101   4.142   5.464
 1926SOL    HW2 5778   1.249   4.159   5.397
 1927SOL     OW 5779   1.141   3.927   5.214
 1927SOL    HW1 5780   1.147   3.995   5.286
 1927SOL    HW2 5781   1.184   3.962   5.131
 1928SOL     OW 5782   5.973   5.052   3.922
 1928SOL    HW1 5783   5.876   5.047   3.898
 1928SOL    HW2 5784   0.002   4.965   3.961
 1929SOL     OW 5785   0.106   5.501   4.685
 1929SOL    HW1 5786   0.054   5.430   4.637
 1929SOL    HW2 5787   0.195   5.512   4.641
 1930SOL     OW 5788   0.504   5.308   4.618
 1930SOL    HW1 5789   0.582   5.367   4.639
 1930SOL    HW2 5790   0.533   5.236   4.555
 1931SOL     OW 5791   0.983   4.514   4.944
 1931SOL    HW1 5792   1.046   4.508   5.022
 1931SOL    HW2 5793   0.899   4.464   4.965
 1932SOL     OW 5794   5.998   4.262   4.882
 1932SOL    HW1 5795   0.043   4.184   4.838
 1932SOL    HW2 5796   0.025   4.266   4.978
 1933SOL     OW 5797   0.210   4.242   5.435
 1933SOL    HW1 5798   0.278   4.218   5.366
 1933SOL    HW2 5799   0.155   4.319   5.402
 1934SOL     OW 5800   1.379   4.657   5.372
 1934SOL    HW1 5801   1.408   4.753   5.382
 1934SOL    HW2 5802   1.381   4.632   5.275
 1935SOL     OW 5803   0.843   4.280   4.038
 1935SOL    HW1 5804   0.835   4.197   3.983
 1935SOL    HW2 5805   0.758   4.332   4.033
 1936SOL     OW 5806   1.635   4.308   4.885
 1936SOL    HW1 5807   1.621   4.284   4.981
 1936SOL    HW2 5808   1.731   4.295   4.861
 1937SOL     OW 5809   0.297   5.304   5.484
 1937SOL    HW1 5810   0.244   5.372   5.534
 1937SOL    HW2 5811   0.276   5.213   5.519
 1938SOL     OW 5812   0.678   4.193   4.988
 1938SOL    HW1 5813   0.635   4.104   4.972
 1938SOL    HW2 5814   0.687   4.242   4.901
 1939SOL     OW 5815   0.919   5.374   5.211
 1939SOL    HW1 5816   0.921   5.324   5.124
 1939SOL    HW2 5817   0.883   5.466   5.195
 1940SOL     OW 5818   0.495   4.223   3.912
 1940SOL    HW1 5819   0.557   4.294   3.945
 1940SOL    HW2 5820   0.403   4.262   3.903
 1941SOL     OW 5821   0.193   4.864   5.191
 1941SOL    HW1 5822   0.140   4.845   5.274
 1941SOL    HW2 5823   0.175   4.794   5.122
 1942SOL     OW 5824   1.304   4.764   4.957
 1942SOL    HW1 5825   1.319   4.691   4.891
 1942SOL    HW2 5826   1.213   4.803   4.943
 1943SOL     OW 5827   1.306   4.631   4.029
 1943SOL    HW1 5828   1.238   4.577   4.078
 1943SOL    HW2 5829   1.302   4.608   3.932
 1944SOL     OW 5830   1.776   5.446   4.891
 1944SOL    HW1 5831   1.851   5.476   4.831
 1944SOL    HW2 5832   1.745   5.356   4.863
 1945SOL     OW 5833   1.227   5.439   4.896
 1945SOL    HW1 5834   1.289   5.501   4.848
 1945SOL    HW2 5835   1.256   5.344   4.880
 1946SOL     OW 5836   0.089   4.986   4.746
 1946SOL    HW1 5837   0.090   4.982   4.846
 1946SOL    HW2 5838   0.010   4.936   4.711
 1947SOL     OW 5839   0.716   5.380   5.473
 1947SOL    HW1 5840   0.620   5.394   5.451
 1947SOL    HW2 5841   0.773   5.416   5.398
 1948SOL     OW 5842   1.679   3.894   4.212
 1948SOL    HW1 5843   1.759   3.892   4.152
 1948SOL    HW2 5844   1.672   3.806   4.259
 1949SOL     OW 5845   1.361   5.309   4.195
 1949SOL    HW1 5846   1.428   5.326   4.123
 1949SOL    HW2 5847   1.328   5.396   4.230
 1950SOL     OW 5848   0.140   5.520   5.565
 1950SOL    HW1 5849   0.064   5.460   5.588
 1950SOL    HW2 5850   0.183   5.553   5.649
 1951SOL     OW 5851   1.277   4.638   4.381
 1951SOL    HW1 5852   1.345   4.567   4.399
 1951SOL    HW2 5853   1.324   4.726   4.371
 1952SOL     OW 5854   0.788   4.971   5.125
 1952SOL    HW1 5855   0.772   5.035   5.200
 1952SOL    HW2 5856   0.711   4.973   5.062
 1953SOL     OW 5857   0.644   5.341   3.892
 1953SOL    HW1 5858   0.665   5.356   3.795
 1953SOL    HW2 5859   0.603   5.250   3.902
 1954SOL     OW 5860   1.633   5.494   5.118
 1954SOL    HW1 5861   1.688   5.480   5.036
 1954SOL    HW2 5862   1.590   5.584   5.116
 1955SOL     OW 5863   1.868   3.893   4.684
 1955SOL    HW1 5864   1.881   3.796   4.668
 1955SOL    HW2 5865   1.774   3.919   4.661
 1956SOL     OW 5866   0.270   4.017   4.429
 1956SOL    HW1 5867   0.178   4.045   4.403
 1956SOL    HW2 5868   0.273   3.998   4.527
 1957SOL     OW 5869   1.223   5.335   3.740
 1957SOL    HW1 5870   1.196   5.249   3.783
 1957SOL    HW2 5871   1.165   5.352   3.660
 1958SOL     OW 5872   0.828   4.714   5.098
 1958SOL    HW1 5873   0.887   4.702   5.018
 1958SOL    HW2 5874   0.810   4.812   5.111
 1959SOL     OW 5875   0.917   4.642   3.993
 1959SOL    HW1 5876   0.993   4.689   3.947
 1959SOL    HW2 5877   0.936   4.544   3.996
 1960SOL     OW 5878   1.508   5.398   3.793
 1960SOL    HW1 5879   1.413   5.370   3.802
 1960SOL    HW2 5880   1.535   5.393   3.696
 1961SOL     OW 5881   0.390   5.037   5.249
 1961SOL    HW1 5882   0.353   5.123   5.214
 1961SOL    HW2 5883   0.330   4.962   5.222
 1962SOL     OW 5884   1.629   5.013   5.025
 1962SOL    HW1 5885   1.677   4.994   5.111
 1962SOL    HW2 5886   1.571   5.094   5.037
 1963SOL     OW 5887   1.025   4.875   4.440
 1963SOL    HW1 5888   0.974   4.796   4.474
 1963SOL    HW2 5889   1.083   4.847   4.363
 1964SOL     OW 5890   0.972   3.967   4.697
 1964SOL    HW1 5891   0.962   3.931   4.605
 1964SOL    HW2 5892   0.975   3.892   4.763
 1965SOL     OW 5893   0.597   5.197   4.169
 1965SOL    HW1 5894   0.622   5.119   4.111
 1965SOL    HW2 5895   0.549   5.265   4.114
 1966SOL     OW 5896   1.722   4.130   5.087
 1966SOL    HW1 5897   1.798   4.192   5.110
 1966SOL    HW2 5898   1.753   4.065   5.018
 1967SOL     OW 5899   0.244   5.074   4.026
 1967SOL    HW1 5900   0.146   5.063   4.011
 1967SOL    HW2 5901   0.259   5.121   4.114
 1968SOL     OW 5902   0.125   4.776   5.475
 1968SOL    HW1 5903   0.065   4.697   5.463
 1968SOL    HW2 5904   0.221   4.745   5.474
 1969SOL     OW 5905   0.679   3.937   5.215
 1969SOL    HW1 5906   0.766   3.892   5.193
 1969SOL    HW2 5907   0.693   4.002   5.290
 1970SOL     OW 5908   0.071   4.112   3.760
 1970SOL    HW1 5909   5.973   4.130   3.749
 1970SOL    HW2 5910   0.122   4.162   3.691
 1971SOL     OW 5911   1.438   4.589   5.117
 1971SOL    HW1 5912   1.372   4.643   5.065
 1971SOL    HW2 5913   1.528   4.597   5.075
 1972SOL     OW 5914   0.074   3.921   4.053
 1972SOL    HW1 5915   0.053   4.006   4.006
 1972SOL    HW2 5916   0.149   3.874   4.006
 1973SOL     OW 5917   1.177   5.091   3.850
 1973SOL    HW1 5918   1.114   5.015   3.834
 1973SOL    HW2 5919   1.208   5.090   3.945
 1974SOL     OW 5920   0.626   4.534   5.143
 1974SOL    HW1 5921   0.677   4.619   5.130
 1974SOL    HW2 5922   0.690   4.460   5.164
 1975SOL     OW 5923   1.485   5.509   4.720
 1975SOL    HW1 5924   1.478   5.589   4.660
 1975SOL    HW2 5925   1.570   5.514   4.772
 1976SOL     OW 5926   0.700   4.289   5.425
 1976SOL    HW1 5927   0.736   4.358   5.488
 1976SOL    HW2 5928   0.712   4.198   5.465
 1977SOL     OW 5929   1.473   4.941   5.357
 1977SOL    HW1 5930   1.456   4.939   5.456
 1977SOL    HW2 5931   1.565   4.976   5.340
 1978SOL     OW 5932   0.370   5.440   5.265
 1978SOL    HW1 5933   0.286   5.491   5.248
 1978SOL    HW2 5934   0.352   5.370   5.334
 1979SOL     OW 5935   1.679   4.596   4.961
 1979SOL    HW1 5936   1.665   4.515   4.903
 1979SOL    HW2 5937   1.676   4.678   4.904
 1980SOL     OW 5938   1.216   4.055   4.172
 1980SOL    HW1 5939   1.276   3.977   4.157
 1980SOL    HW2 5940   1.246   4.105   4.254
 1981SOL     OW 5941   0.534   4.452   4.414
 1981SOL    HW1 5942   0.584   4.539   4.409
 1981SOL    HW2 5943   0.481   4.439   4.331
 1982SOL     OW 5944   1.733   4.116   5.382
 1982SOL    HW1 5945   1.730   4.136   5.284
 1982SOL    HW2 5946   1.661   4.051   5.405
 1983SOL     OW 5947   1.750   4.686   5.204
 1983SOL    HW1 5948   1.745   4.784   5.187
 1983SOL    HW2 5949   1.739   4.636   5.118
 1984SOL     OW 5950   0.852   5.128   3.723
 1984SOL    HW1 5951   0.830   5.124   3.820
 1984SOL    HW2 5952   0.914   5.204   3.705
 1985SOL     OW 5953   0.681   5.527   4.655
 1985SOL    HW1 5954   0.629   5.609   4.680
 1985SOL    HW2 5955   0.774   5.553   4.627
 1986SOL     OW 5956   0.864   4.709   4.591
 1986SOL    HW1 5957   0.932   4.640   4.617
 1986SOL    HW2 5958   0.839   4.763   4.671
 1987SOL     OW 5959   1.086   4.757   3.794
 1987SOL    HW1 5960   1.044   4.783   3.707
 1987SOL    HW2 5961   1.154   4.686   3.778
 1988SOL     OW 5962   1.817   5.304   4.584
 1988SOL    HW1 5963   1.734   5.299   4.529
 1988SOL    HW2 5964   1.808   5.244   4.664
 1989SOL     OW 5965   0.232   5.048   5.593
 1989SOL    HW1 5966   0.171   4.984   5.548
 1989SOL    HW2 5967   0.201   5.063   5.687
 1990SOL     OW 5968   0.101   4.944   4.363
 1990SOL    HW1 5969   0.076   4.963   4.458
 1990SOL    HW2 5970   0.185   4.993   4.341
 1991SOL     OW 5971   0.734   5.115   5.338
 1991SOL    HW1 5972   0.644   5.079   5.364
 1991SOL    HW2 5973   0.752   5.199   5.387
 1992SOL     OW 5974   1.820   3.900   4.953
 1992SOL    HW1 5975   1.813   3.807   4.989
 1992SOL    HW2 5976   1.851   3.896   4.858
 1993SOL     OW 5977   0.423   4.153   4.244
 1993SOL    HW1 5978   0.454   4.080   4.184
 1993SOL    HW2 5979   0.361   4.115   4.313
 1994SOL     OW 5980   1.703   5.193   4.825
 1994SOL    HW1 5981   1.616   5.183   4.778
 1994SOL    HW2 5982   1.711   5.123   4.897
 1995SOL     OW 5983   0.301   4.279   4.977
 1995SOL    HW1 5984   0.359   4.231   5.043
 1995SOL    HW2 5985   0.328   4.253   4.884
 1996SOL     OW 5986   0.807   5.285   4.422
 1996SOL    HW1 5987   0.807   5.319   4.328
 1996SOL    HW2 5988   0.730   5.222   4.434
 1997SOL     OW 5989   1.405   3.958   4.860
 1997SOL    HW1 5990   1.485   3.913   4.899
 1997SOL    HW2 5991   1.362   4.017   4.929
 1998SOL     OW 5992   0.983   3.763   4.879
 1998SOL    HW1 5993   0.933   3.687   4.837
 1998SOL    HW2 5994   1.072   3.730   4.911
 1999SOL     OW 5995   0.839   5.012   4.066
 1999SOL    HW1 5996   0.787   4.928   4.082
 1999SOL    HW2 5997   0.893   5.033   4.147
 2000SOL     OW 5998   0.654   5.286   5.002
 2000SOL    HW1 5999   0.646   5.365   5.062
 2000SOL    HW2 6000   0.746   5.283   4.962
 2001SOL     OW 6001   1.375   3.790   3.882
 2001SOL    HW1 6002   1.413   3.753   3.798
 2001SOL    HW2 6003   1.302   3.730   3.915
 2002SOL     OW 6004   1.317   4.170   4.395
 2002SOL    HW1 6005   1.271   4.258   4.391
 2002SOL    HW2 6006   1.321   4.138   4.490
 2003SOL     OW 6007   1.607   3.948   4.626
 2003SOL    HW1 6008   1.543   3.958   4.702
 2003SOL    HW2 6009   1.602   4.029   4.567
 2004SOL     OW 6010   0.083   4.833   4.029
 2004SOL    HW1 6011   0.167   4.786   4.003
 2004SOL    HW2 6012   0.050   4.797   4.117
 2005SOL     OW 6013   0.880   5.362   4.010
 2005SOL    HW1 6014   0.793   5.350   3.962
 2005SOL    HW2 6015   0.873   5.440   4.072
 2006SOL     OW 6016   0.228   4.365   5.722
 2006SOL    HW1 6017   0.144   4.368   5.775
 2006SOL    HW2 6018   0.207   4.339   5.627
 2007SOL     OW 6019   1.774   4.330   5.822
 2007SOL    HW1 6020   1.775   4.357   5.726
 2007SOL    HW2 6021   1.701   4.264   5.838
 2008SOL     OW 6022   0.313   5.403   0.070
 2008SOL    HW1 6023   0.303   5.490   0.118
 2008SOL    HW2 6024   0.309   5.419   5.971
 2009SOL     OW 6025   0.605   4.682   5.747
 2009SOL    HW1 6026   0.624   4.754   5.681
 2009SOL    HW2 6027   0.630   4.713   5.839
 2010SOL     OW 6028   1.840   5.498   5.926
 2010SOL    HW1 6029   1.843   5.437   0.006
 2010SOL    HW2 6030   1.870   5.590   5.953
 2011SOL     OW 6031   0.068   5.311   5.747
 2011SOL    HW1 6032   0.028   5.228   5.707
 2011SOL    HW2 6033   0.014   5.339   5.826
 2012SOL     OW 6034   1.712   4.635   0.206
 2012SOL    HW1 6035   1.794   4.638   0.264
 2012SOL    HW2 6036   1.739   4.629   0.110
 2013SOL     OW 6037   1.670   4.838   5.970
 2013SOL    HW1 6038   1.769   4.839   5.977
 2013SOL    HW2 6039   1.630   4.826   0.061
 2014SOL     OW 6040   1.517   4.724   5.782
 2014SOL    HW1 6041   1.475   4.637   5.812
 2014SOL    HW2 6042   1.562   4.768   5.860
 2015SOL     OW 6043   0.556   4.439   5.871
 2015SOL    HW1 6044   0.578   4.521   5.820
 2015SOL    HW2 6045   0.534   4.463   5.966
 2016SOL     OW 6046   0.864   4.093   5.764
 2016SOL    HW1 6047   0.923   4.132   5.693
 2016SOL    HW2 6048   0.839   3.999   5.738
 2017SOL     OW 6049   0.312   4.676   5.836
 2017SOL    HW1 6050   0.404   4.693   5.800
 2017SOL    HW2 6051   0.275   4.593   5.794
 2018SOL     OW 6052   1.131   5.525   5.802
 2018SOL    HW1 6053   1.045   5.485   5.837
 2018SOL    HW2 6054   1.164   5.471   5.725
 2019SOL     OW 6055   1.654   5.055   5.635
 2019SOL    HW1 6056   1.643   5.153   5.649
 2019SOL    HW2 6057   1.564   5.013   5.623
 2020SOL     OW 6058   0.506   5.500   5.877
 2020SOL    HW1 6059   0.507   5.490   5.977
 2020SOL    HW2 6060   0.574   5.440   5.837
 2021SOL     OW 6061   0.589   3.845   5.677
 2021SOL    HW1 6062   0.672   3.790   5.683
 2021SOL    HW2 6063   0.529   3.809   5.606
 2022SOL     OW 6064   1.414   4.917   5.619
 2022SOL    HW1 6065   1.454   4.837   5.664
 2022SOL    HW2 6066   1.354   4.964   5.683
 2023SOL     OW 6067   0.273   3.755   5.774
 2023SOL    HW1 6068   0.323   3.823   5.720
 2023SOL    HW2 6069   0.337   3.685   5.807
 2024SOL     OW 6070   1.007   4.237   5.578
 2024SOL    HW1 6071   0.959   4.322   5.558
 2024SOL    HW2 6072   1.085   4.256   5.637
 2025SOL     OW 6073   1.847   4.541   5.975
 2025SOL    HW1 6074   1.884   4.486   0.050
 2025SOL    HW2 6075   1.828   4.482   5.896
 2026SOL     OW 6076   0.499   5.135   5.774
 2026SOL    HW1 6077   0.411   5.113   5.816
 2026SOL    HW2 6078   0.499   5.104   5.679
 2027SOL     OW 6079   1.703   5.069   0.329
 2027SOL    HW1 6080   1.785   5.013   0.319
 2027SOL    HW2 6081   1.652   5.070   0.243
 2028SOL     OW 6082   1.368   4.309   5.665
 2028SOL    HW1 6083   1.296   4.276   5.726
 2028SOL    HW2 6084   1.457   4.290   5.706
 2029SOL     OW 6085   0.536   3.984   5.906
 2029SOL    HW1 6086   0.537   3.918   5.831
 2029SOL    HW2 6087   0.534   4.077   5.869
 2030SOL     OW 6088   0.385   4.808   0.059
 2030SOL    HW1 6089   0.380   4.908   0.057
 2030SOL    HW2 6090   0.345   4.770   5.976
 2031SOL     OW 6091   1.172   4.235   5.833
 2031SOL    HW1 6092   1.207   4.143   5.851
 2031SOL    HW2 6093   1.113   4.264   5.908
 2032SOL     OW 6094   0.305   3.780   0.202
 2032SOL    HW1 6095   0.348   3.868   0.180
 2032SOL    HW2 6096   0.372   3.721   0.248
 2033SOL     OW 6097   1.534   4.019   5.723
 2033SOL    HW1 6098   1.487   3.932   5.713
 2033SOL    HW2 6099   1.540   4.042   5.821
 2034SOL     OW 6100   1.287   4.558   5.602
 2034SOL    HW1 6101   1.320   4.464   5.611
 2034SOL    HW2 6102   1.320   4.597   5.516
 2035SOL     OW 6103   5.991   5.041   5.758
 2035SOL    HW1 6104   5.899   5.030   5.720
 2035SOL    HW2 6105   0.018   4.958   5.806
 2036SOL     OW 6106   0.809   4.330   5.883
 2036SOL    HW1 6107   0.819   4.238   5.845
 2036SOL    HW2 6108   0.712   4.356   5.882
 2037SOL     OW 6109   0.483   4.206   5.748
 2037SOL    HW1 6110   0.525   4.286   5.790
 2037SOL    HW2 6111   0.389   4.226   5.723
 2038SOL     OW 6112   1.705   3.809   0.137
 2038SOL    HW1 6113   1.718   3.857   0.051
 2038SOL    HW2 6114   1.689   3.712   0.120
 2039SOL     OW 6115   0.675   5.330   5.758
 2039SOL    HW1 6116   0.682   5.352   5.660
 2039SOL    HW2 6117   0.610   5.256   5.770
 2040SOL     OW 6118   1.215   5.350   5.610
 2040SOL    HW1 6119   1.198   5.261   5.654
 2040SOL    HW2 6120   1.155   5.359   5.530
 2041SOL     OW 6121   0.940   4.591   5.884
 2041SOL    HW1 6122   0.987   4.624   5.803
 2041SOL    HW2 6123   0.905   4.499   5.867
 2042SOL     OW 6124   1.494   5.433   5.641
 2042SOL    HW1 6125   1.398   5.402   5.636
 2042SOL    HW2 6126   1.538   5.416   5.553
 2043SOL     OW 6127   1.068   4.823   0.328
 2043SOL    HW1 6128   0.970   4.837   0.339
 2043SOL    HW2 6129   1.087   4.787   0.237
 2044SOL     OW 6130   0.258   5.113   5.905
 2044SOL    HW1 6131   0.168   5.131   5.865
 2044SOL    HW2 6132   0.264   5.158   5.994
 2045SOL     OW 6133   0.074   4.120   5.642
 2045SOL    HW1 6134   5.975   4.129   5.635
 2045SOL    HW2 6135   0.117   4.161   5.562
 2046SOL     OW 6136   0.072   3.927   5.859
 2046SOL    HW1 6137   0.081   4.000   5.791
 2046SOL    HW2 6138   0.148   3.862   5.849
 2047SOL     OW 6139   1.193   5.092   5.748
 2047SOL    HW1 6140   1.113   5.046   5.709
 2047SOL    HW2 6141   1.216   5.049   5.836
 2048SOL     OW 6142   1.252   4.011   5.997
 2048SOL    HW1 6143   1.319   3.955   0.045
 2048SOL    HW2 6144   1.220   4.084   0.057
 2049SOL     OW 6145   0.852   5.116   5.612
 2049SOL    HW1 6146   0.796   5.167   5.677
 2049SOL    HW2 6147   0.914   5.178   5.565
 2050SOL     OW 6148   1.069   4.690   5.678
 2050SOL    HW1 6149   1.031   4.739   5.600
 2050SOL    HW2 6150   1.158   4.651   5.653
 2051SOL     OW 6151   1.385   3.796   5.730
 2051SOL    HW1 6152   1.422   3.723   5.673
 2051SOL    HW2 6153   1.306   3.762   5.781
 2052SOL     OW 6154   0.076   4.831   5.903
 2052SOL    HW1 6155   0.160   4.783   5.878
 2052SOL    HW2 6156   0.004   4.764   5.923
 2053SOL     OW 6157   0.908   5.377   5.900
 2053SOL    HW1 6158   0.826   5.348   5.850
 2053SOL    HW2 6159   0.881   5.439   5.974
 2054SOL     OW 6160   0.171   5.859   0.963
 2054SOL    HW1 6161   0.204   5.834   1.054
 2054SOL    HW2 6162   0.071   5.853   0.961
 2055SOL     OW 6163   0.027   5.939   0.654
 2055SOL    HW1 6164   5.938   5.934   0.700
 2055SOL    HW2 6165   0.022   5.895   0.565
 2056SOL     OW 6166   0.422   5.991   1.478
 2056SOL    HW1 6167   0.496   5.937   1.439
 2056SOL    HW2 6168   0.344   5.932   1.497
 2057SOL     OW 6169   1.603   0.030   0.713
 2057SOL    HW1 6170   1.506   0.040   0.688
 2057SOL    HW2 6171   1.627   0.101   0.779
 2058SOL     OW 6172   1.539   5.731   1.447
 2058SOL    HW1 6173   1.578   5.811   1.401
 2058SOL    HW2 6174   1.572   5.727   1.541
 2059SOL     OW 6175   0.821   5.584   0.503
 2059SOL    HW1 6176   0.868   5.669   0.478
 2059SOL    HW2 6177   0.726   5.605   0.526
 2060SOL     OW 6178   0.316   5.802   1.825
 2060SOL    HW1 6179   0.377   5.872   1.789
 2060SOL    HW2 6180   0.221   5.831   1.812
 2061SOL     OW 6181   1.279   5.939   0.926
 2061SOL    HW1 6182   1.185   5.910   0.910
 2061SOL    HW2 6183   1.320   5.883   0.998
 2062SOL     OW 6184   0.502   5.749   0.924
 2062SOL    HW1 6185   0.517   5.787   1.015
 2062SOL    HW2 6186   0.540   5.810   0.855
 2063SOL     OW 6187   0.200   5.847   1.502
 2063SOL    HW1 6188   0.113   5.888   1.473
 2063SOL    HW2 6189   0.185   5.750   1.525
 2064SOL     OW 6190   1.397   5.726   0.413
 2064SOL    HW1 6191   1.400   5.717   0.314
 2064SOL    HW2 6192   1.490   5.743   0.448
 2065SOL     OW 6193   1.532   5.800   1.765
 2065SOL    HW1 6194   1.525   5.829   1.860
 2065SOL    HW2 6195   1.472   5.721   1.749
 2066SOL     OW 6196   0.611   5.692   0.105
 2066SOL    HW1 6197   0.708   5.668   0.104
 2066SOL    HW2 6198   0.592   5.761   0.036
 2067SOL     OW 6199   0.753   5.859   1.733
 2067SOL    HW1 6200   0.823   5.794   1.762
 2067SOL    HW2 6201   0.683   5.868   1.804
 2068SOL     OW 6202   1.436   0.223   1.430
 2068SOL    HW1 6203   1.382   0.190   1.507
 2068SOL    HW2 6204   1.377   0.272   1.366
 2069SOL     OW 6205   0.563   5.659   0.507
 2069SOL    HW1 6206   0.474   5.651   0.551
 2069SOL    HW2 6207   0.564   5.739   0.447
 2070SOL     OW 6208   0.932   5.825   0.450
 2070SOL    HW1 6209   0.883   5.896   0.500
 2070SOL    HW2 6210   1.027   5.853   0.437
 2071SOL     OW 6211   0.552   5.819   1.170
 2071SOL    HW1 6212   0.612   5.764   1.228
 2071SOL    HW2 6213   0.458   5.812   1.203
 2072SOL     OW 6214   0.944   5.655   0.746
 2072SOL    HW1 6215   0.911   5.627   0.656
 2072SOL    HW2 6216   0.988   5.578   0.791
 2073SOL     OW 6217   0.562   5.878   0.340
 2073SOL    HW1 6218   0.575   5.824   0.257
 2073SOL    HW2 6219   0.555   5.975   0.317
 2074SOL     OW 6220   0.921   5.654   1.399
 2074SOL    HW1 6221   0.959   5.631   1.310
 2074SOL    HW2 6222   0.980   5.720   1.445
 2075SOL     OW 6223   0.981   5.694   1.747
 2075SOL    HW1 6224   1.036   5.720   1.669
 2075SOL    HW2 6225   0.995   5.597   1.767
 2076SOL     OW 6226   0.473   5.606   1.740
 2076SOL    HW1 6227   0.435   5.550   1.667
 2076SOL    HW2 6228   0.410   5.680   1.762
 2077SOL     OW 6229   0.291   5.764   1.227
 2077SOL    HW1 6230   0.237   5.801   1.303
 2077SOL    HW2 6231   0.271   5.667   1.216
 2078SOL     OW 6232   0.772   0.215   1.045
 2078SOL    HW1 6233   0.736   0.158   0.970
 2078SOL    HW2 6234   0.754   0.311   1.025
 2079SOL     OW 6235   0.326   5.659   0.637
 2079SOL    HW1 6236   0.325   5.754   0.667
 2079SOL    HW2 6237   0.334   5.598   0.716
 2080SOL     OW 6238   1.486   5.855   0.156
 2080SOL    HW1 6239   1.473   5.757   0.147
 2080SOL    HW2 6240   1.566   5.874   0.212
 2081SOL     OW 6241   0.350   0.049   1.009
 2081SOL    HW1 6242   0.309   5.964   0.976
 2081SOL    HW2 6243   0.405   0.090   0.936
 2082SOL     OW 6244   1.124   5.853   1.498
 2082SOL    HW1 6245   1.137   5.921   1.570
 2082SOL    HW2 6246   1.135   5.897   1.409
 2083SOL     OW 6247   0.046   0.067   1.162
 2083SOL    HW1 6248   0.098   0.038   1.082
 2083SOL    HW2 6249   0.036   0.167   1.160
 2084SOL     OW 6250   0.785   0.165   0.356
 2084SOL    HW1 6251   0.781   0.084   0.296
 2084SOL    HW2 6252   0.692   0.196   0.377
 2085SOL     OW 6253   0.928   5.645   0.110
 2085SOL    HW1 6254   0.973   5.702   0.042
 2085SOL    HW2 6255   0.946   5.681   0.202
 2086SOL     OW 6256   1.714   5.762   0.469
 2086SOL    HW1 6257   1.788   5.749   0.403
 2086SOL    HW2 6258   1.693   5.675   0.513
 2087SOL     OW 6259   1.853   5.767   0.966
 2087SOL    HW1 6260   1.877   5.677   0.930
 2087SOL    HW2 6261   1.764   5.794   0.929
 2088SOL     OW 6262   1.008   5.845   0.925
 2088SOL    HW1 6263   0.976   5.788   0.849
 2088SOL    HW2 6264   1.024   5.787   1.005
 2089SOL     OW 6265   0.693   5.772   1.459
 2089SOL    HW1 6266   0.778   5.741   1.416
 2089SOL    HW2 6267   0.713   5.813   1.548
 2090SOL     OW 6268   0.072   5.954   0.056
 2090SOL    HW1 6269   5.974   5.936   0.045
 2090SOL    HW2 6270   0.095   0.042   0.015
 2091SOL     OW 6271   0.064   5.850   0.295
 2091SOL    HW1 6272   0.085   5.893   0.207
 2091SOL    HW2 6273   0.127   5.775   0.311
 2092SOL     OW 6274   1.190   5.909   0.425
 2092SOL    HW1 6275   1.257   5.835   0.429
 2092SOL    HW2 6276   1.233   5.995   0.452
 2093SOL     OW 6277   1.762   5.826   1.608
 2093SOL    HW1 6278   1.758   5.919   1.572
 2093SOL    HW2 6279   1.687   5.812   1.673
 2094SOL     OW 6280   1.801   5.769   1.233
 2094SOL    HW1 6281   1.818   5.673   1.257
 2094SOL    HW2 6282   1.813   5.781   1.135
 2095SOL     OW 6283   1.403   5.803   1.114
 2095SOL    HW1 6284   1.457   5.720   1.127
 2095SOL    HW2 6285   1.398   5.853   1.200
 2096SOL     OW 6286   1.033   5.608   1.149
 2096SOL    HW1 6287   0.969   5.548   1.101
 2096SOL    HW2 6288   1.116   5.557   1.172
 2097SOL     OW 6289   1.352   5.625   0.155
 2097SOL    HW1 6290   1.376   5.552   0.091
 2097SOL    HW2 6291   1.269   5.600   0.205
 2098SOL     OW 6292   1.336   0.072   0.707
 2098SOL    HW1 6293   1.252   0.120   0.681
 2098SOL    HW2 6294   1.318   0.014   0.786
 2099SOL     OW 6295   1.601   5.832   0.893
 2099SOL    HW1 6296   1.523   5.843   0.955
 2099SOL    HW2 6297   1.597   5.902   0.822
 2100SOL     OW 6298   0.177   5.854   2.816
 2100SOL    HW1 6299   0.221   5.828   2.902
 2100SOL    HW2 6300   0.078   5.850   2.827
 2101SOL     OW 6301   0.037   5.942   2.503
 2101SOL    HW1 6302   5.954   5.943   2.559
 2101SOL    HW2 6303   0.019   5.892   2.418
 2102SOL     OW 6304   1.732   0.202   2.069
 2102SOL    HW1 6305   1.756   0.138   1.995
 2102SOL    HW2 6306   1.658   0.162   2.124
 2103SOL     OW 6307   0.422   5.992   3.343
 2103SOL    HW1 6308   0.494   5.934   3.304
 2103SOL    HW2 6309   0.342   5.935   3.363
 2104SOL     OW 6310   1.601   0.043   2.604
 2104SOL    HW1 6311   1.505   0.036   2.576
 2104SOL    HW2 6312   1.610   0.113   2.674
 2105SOL     OW 6313   1.539   5.732   3.303
 2105SOL    HW1 6314   1.579   5.818   3.271
 2105SOL    HW2 6315   1.563   5.719   3.400
 2106SOL     OW 6316   0.816   5.558   2.308
 2106SOL    HW1 6317   0.859   5.647   2.322
 2106SOL    HW2 6318   0.718   5.564   2.329
 2107SOL     OW 6319   0.317   5.806   3.689
 2107SOL    HW1 6320   0.378   5.876   3.650
 2107SOL    HW2 6321   0.222   5.833   3.674
 2108SOL     OW 6322   1.274   5.934   2.795
 2108SOL    HW1 6323   1.179   5.904   2.780
 2108SOL    HW2 6324   1.315   5.881   2.869
 2109SOL     OW 6325   0.878   5.957   2.003
 2109SOL    HW1 6326   0.962   0.004   1.974
 2109SOL    HW2 6327   0.899   5.862   2.025
 2110SOL     OW 6328   0.508   5.751   2.777
 2110SOL    HW1 6329   0.533   5.804   2.858
 2110SOL    HW2 6330   0.522   5.807   2.695
 2111SOL     OW 6331   0.196   5.847   3.366
 2111SOL    HW1 6332   0.110   5.889   3.335
 2111SOL    HW2 6333   0.179   5.752   3.393
 2112SOL     OW 6334   1.375   5.740   2.279
 2112SOL    HW1 6335   1.386   5.715   2.183
 2112SOL    HW2 6336   1.464   5.737   2.325
 2113SOL     OW 6337   1.531   5.790   3.622
 2113SOL    HW1 6338   1.523   5.828   3.714
 2113SOL    HW2 6339   1.486   5.701   3.618
 2114SOL     OW 6340   0.610   5.701   1.961
 2114SOL    HW1 6341   0.668   5.624   1.987
 2114SOL    HW2 6342   0.563   5.680   1.875
 2115SOL     OW 6343   0.750   5.859   3.597
 2115SOL    HW1 6344   0.821   5.794   3.624
 2115SOL    HW2 6345   0.681   5.864   3.669
 2116SOL     OW 6346   1.436   0.228   3.292
 2116SOL    HW1 6347   1.385   0.198   3.372
 2116SOL    HW2 6348   1.375   0.275   3.229
 2117SOL     OW 6349   0.555   5.642   2.352
 2117SOL    HW1 6350   0.478   5.648   2.416
 2117SOL    HW2 6351   0.559   5.725   2.297
 2118SOL     OW 6352   0.276   5.628   2.051
 2118SOL    HW1 6353   0.313   5.692   1.983
 2118SOL    HW2 6354   0.348   5.564   2.078
 2119SOL     OW 6355   0.913   5.809   2.332
 2119SOL    HW1 6356   0.857   5.888   2.359
 2119SOL    HW2 6357   1.007   5.839   2.316
 2120SOL     OW 6358   0.563   5.826   3.028
 2120SOL    HW1 6359   0.624   5.767   3.080
 2120SOL    HW2 6360   0.469   5.814   3.060
 2121SOL     OW 6361   0.960   5.668   2.606
 2121SOL    HW1 6362   0.948   5.686   2.508
 2121SOL    HW2 6363   0.974   5.570   2.621
 2122SOL     OW 6364   0.553   5.855   2.177
 2122SOL    HW1 6365   0.566   5.800   2.094
 2122SOL    HW2 6366   0.556   5.952   2.154
 2123SOL     OW 6367   0.925   5.654   3.274
 2123SOL    HW1 6368   0.954   5.632   3.181
 2123SOL    HW2 6369   0.988   5.720   3.314
 2124SOL     OW 6370   0.981   5.694   3.614
 2124SOL    HW1 6371   1.037   5.714   3.534
 2124SOL    HW2 6372   0.992   5.598   3.639
 2125SOL     OW 6373   0.481   5.613   3.607
 2125SOL    HW1 6374   0.443   5.564   3.528
 2125SOL    HW2 6375   0.420   5.689   3.631
 2126SOL     OW 6376   0.299   5.765   3.091
 2126SOL    HW1 6377   0.247   5.802   3.168
 2126SOL    HW2 6378   0.276   5.669   3.078
 2127SOL     OW 6379   0.776   0.198   2.907
 2127SOL    HW1 6380   0.739   0.158   2.822
 2127SOL    HW2 6381   0.705   0.254   2.951
 2128SOL     OW 6382   0.315   5.649   2.498
 2128SOL    HW1 6383   0.298   5.747   2.513
 2128SOL    HW2 6384   0.328   5.604   2.586
 2129SOL     OW 6385   1.560   5.860   2.032
 2129SOL    HW1 6386   1.513   5.772   2.027
 2129SOL    HW2 6387   1.558   5.894   2.126
 2130SOL     OW 6388   0.334   0.058   2.864
 2130SOL    HW1 6389   0.280   5.983   2.826
 2130SOL    HW2 6390   0.393   0.096   2.792
 2131SOL     OW 6391   1.126   5.854   3.356
 2131SOL    HW1 6392   1.133   5.916   3.435
 2131SOL    HW2 6393   1.125   5.907   3.272
 2132SOL     OW 6394   0.052   0.065   3.018
 2132SOL    HW1 6395   0.113   0.048   2.940
 2132SOL    HW2 6396   0.032   0.163   3.023
 2133SOL     OW 6397   0.821   0.142   2.173
 2133SOL    HW1 6398   0.836   0.057   2.124
 2133SOL    HW2 6399   0.724   0.151   2.195
 2134SOL     OW 6400   1.713   5.759   2.336
 2134SOL    HW1 6401   1.784   5.755   2.265
 2134SOL    HW2 6402   1.698   5.668   2.374
 2135SOL     OW 6403   1.846   5.766   2.821
 2135SOL    HW1 6404   1.869   5.675   2.788
 2135SOL    HW2 6405   1.752   5.788   2.795
 2136SOL     OW 6406   1.006   5.841   2.794
 2136SOL    HW1 6407   0.983   5.781   2.718
 2136SOL    HW2 6408   1.021   5.786   2.876
 2137SOL     OW 6409   0.692   5.779   3.329
 2137SOL    HW1 6410   0.779   5.755   3.286
 2137SOL    HW2 6411   0.708   5.827   3.415
 2138SOL     OW 6412   0.083   5.929   1.811
 2138SOL    HW1 6413   5.986   5.924   1.835
 2138SOL    HW2 6414   0.123   0.010   1.854
 2139SOL     OW 6415   0.082   5.788   2.157
 2139SOL    HW1 6416   0.098   5.858   2.087
 2139SOL    HW2 6417   0.150   5.716   2.149
 2140SOL     OW 6418   1.163   5.903   2.309
 2140SOL    HW1 6419   1.233   5.832   2.306
 2140SOL    HW2 6420   1.204   5.988   2.341
 2141SOL     OW 6421   1.758   5.844   3.470
 2141SOL    HW1 6422   1.745   5.935   3.431
 2141SOL    HW2 6423   1.680   5.821   3.529
 2142SOL     OW 6424   1.813   5.772   3.095
 2142SOL    HW1 6425   1.817   5.677   3.126
 2142SOL    HW2 6426   1.841   5.777   3.000
 2143SOL     OW 6427   1.407   5.804   2.984
 2143SOL    HW1 6428   1.488   5.746   2.991
 2143SOL    HW2 6429   1.393   5.853   3.071
 2144SOL     OW 6430   1.024   5.607   3.022
 2144SOL    HW1 6431   0.966   5.549   2.965
 2144SOL    HW2 6432   1.101   5.554   3.057
 2145SOL     OW 6433   1.385   5.651   2.013
 2145SOL    HW1 6434   1.434   5.576   1.969
 2145SOL    HW2 6435   1.296   5.619   2.045
 2146SOL     OW 6436   1.332   0.068   2.574
 2146SOL    HW1 6437   1.248   0.118   2.556
 2146SOL    HW2 6438   1.319   0.005   2.651
 2147SOL     OW 6439   1.573   5.821   2.755
 2147SOL    HW1 6440   1.482   5.838   2.794
 2147SOL    HW2 6441   1.596   5.896   2.692
 2148SOL     OW 6442   0.180   5.857   4.668
 2148SOL    HW1 6443   0.217   5.832   4.757
 2148SOL    HW2 6444   0.081   5.851   4.670
 2149SOL     OW 6445   0.037   5.933   4.371
 2149SOL    HW1 6446   5.951   5.943   4.421
 2149SOL    HW2 6447   0.019   5.893   4.282
 2150SOL     OW 6448   1.734   0.197   3.925
 2150SOL    HW1 6449   1.760   0.129   3.857
 2150SOL    HW2 6450   1.659   0.162   3.981
 2151SOL     OW 6451   0.417   5.993   5.196
 2151SOL    HW1 6452   0.493   5.937   5.163
 2151SOL    HW2 6453   0.339   5.935   5.219
 2152SOL     OW 6454   1.601   0.038   4.461
 2152SOL    HW1 6455   1.506   0.035   4.429
 2152SOL    HW2 6456   1.611   0.109   4.531
 2153SOL     OW 6457   1.546   5.742   5.153
 2153SOL    HW1 6458   1.604   5.819   5.123
 2153SOL    HW2 6459   1.550   5.735   5.253
 2154SOL     OW 6460   0.816   5.559   4.171
 2154SOL    HW1 6461   0.856   5.650   4.180
 2154SOL    HW2 6462   0.718   5.563   4.193
 2155SOL     OW 6463   0.335   5.809   5.577
 2155SOL    HW1 6464   0.398   5.861   5.520
 2155SOL    HW2 6465   0.242   5.844   5.565
 2156SOL     OW 6466   1.270   5.934   4.656
 2156SOL    HW1 6467   1.178   5.904   4.630
 2156SOL    HW2 6468   1.302   5.880   4.734
 2157SOL     OW 6469   0.869   5.926   3.894
 2157SOL    HW1 6470   0.954   5.962   3.857
 2157SOL    HW2 6471   0.889   5.858   3.965
 2158SOL     OW 6472   0.507   5.752   4.648
 2158SOL    HW1 6473   0.533   5.796   4.734
 2158SOL    HW2 6474   0.506   5.821   4.575
 2159SOL     OW 6475   0.198   5.844   5.240
 2159SOL    HW1 6476   0.113   5.882   5.202
 2159SOL    HW2 6477   0.180   5.754   5.278
 2160SOL     OW 6478   1.385   5.742   4.138
 2160SOL    HW1 6479   1.395   5.709   4.044
 2160SOL    HW2 6480   1.473   5.735   4.185
 2161SOL     OW 6481   1.532   5.770   5.439
 2161SOL    HW1 6482   1.529   5.809   5.531
 2161SOL    HW2 6483   1.496   5.677   5.440
 2162SOL     OW 6484   0.615   5.707   3.826
 2162SOL    HW1 6485   0.714   5.714   3.816
 2162SOL    HW2 6486   0.576   5.663   3.746
 2163SOL     OW 6487   0.754   5.853   5.469
 2163SOL    HW1 6488   0.827   5.787   5.485
 2163SOL    HW2 6489   0.677   5.832   5.530
 2164SOL     OW 6490   1.434   0.233   5.161
 2164SOL    HW1 6491   1.381   0.198   5.238
 2164SOL    HW2 6492   1.375   0.284   5.099
 2165SOL     OW 6493   0.559   5.647   4.213
 2165SOL    HW1 6494   0.479   5.646   4.273
 2165SOL    HW2 6495   0.559   5.731   4.159
 2166SOL     OW 6496   0.275   5.633   3.912
 2166SOL    HW1 6497   0.311   5.697   3.845
 2166SOL    HW2 6498   0.348   5.569   3.938
 2167SOL     OW 6499   0.913   5.812   4.181
 2167SOL    HW1 6500   0.862   5.883   4.229
 2167SOL    HW2 6501   1.009   5.840   4.171
 2168SOL     OW 6502   0.569   5.818   4.896
 2168SOL    HW1 6503   0.625   5.754   4.948
 2168SOL    HW2 6504   0.474   5.813   4.926
 2169SOL     OW 6505   0.962   5.664   4.469
 2169SOL    HW1 6506   0.948   5.675   4.371
 2169SOL    HW2 6507   0.983   5.568   4.489
 2170SOL     OW 6508   0.549   5.857   4.039
 2170SOL    HW1 6509   0.562   5.798   3.960
 2170SOL    HW2 6510   0.560   5.953   4.012
 2171SOL     OW 6511   0.939   5.653   5.134
 2171SOL    HW1 6512   0.966   5.633   5.039
 2171SOL    HW2 6513   1.012   5.707   5.178
 2172SOL     OW 6514   0.976   5.687   5.480
 2172SOL    HW1 6515   1.018   5.732   5.401
 2172SOL    HW2 6516   1.014   5.595   5.490
 2173SOL     OW 6517   0.464   5.589   5.474
 2173SOL    HW1 6518   0.431   5.539   5.394
 2173SOL    HW2 6519   0.399   5.661   5.498
 2174SOL     OW 6520   0.299   5.765   4.943
 2174SOL    HW1 6521   0.236   5.798   5.013
 2174SOL    HW2 6522   0.286   5.667   4.929
 2175SOL     OW 6523   0.776   0.228   4.773
 2175SOL    HW1 6524   0.749   0.191   4.685
 2175SOL    HW2 6525   0.694   0.258   4.823
 2176SOL     OW 6526   0.323   5.643   4.356
 2176SOL    HW1 6527   0.299   5.740   4.367
 2176SOL    HW2 6528   0.335   5.601   4.445
 2177SOL     OW 6529   1.562   5.860   3.889
 2177SOL    HW1 6530   1.511   5.774   3.884
 2177SOL    HW2 6531   1.559   5.894   3.983
 2178SOL     OW 6532   0.361   0.042   4.731
 2178SOL    HW1 6533   0.317   5.961   4.694
 2178SOL    HW2 6534   0.399   0.097   4.656
 2179SOL     OW 6535   1.128   5.842   5.232
 2179SOL    HW1 6536   1.148   5.910   5.302
 2179SOL    HW2 6537   1.131   5.885   5.142
 2180SOL     OW 6538   0.051   0.066   4.879
 2180SOL    HW1 6539   0.116   0.049   4.805
 2180SOL    HW2 6540   0.037   0.165   4.889
 2181SOL     OW 6541   0.815   0.151   4.011
 2181SOL    HW1 6542   0.834   0.057   3.982
 2181SOL    HW2 6543   0.723   0.156   4.049
 2182SOL     OW 6544   1.723   5.751   4.195
 2182SOL    HW1 6545   1.800   5.744   4.131
 2182SOL    HW2 6546   1.705   5.662   4.236
 2183SOL     OW 6547   1.844   5.767   4.697
 2183SOL    HW1 6548   1.861   5.673   4.669
 2183SOL    HW2 6549   1.755   5.797   4.664
 2184SOL     OW 6550   0.990   5.831   4.670
 2184SOL    HW1 6551   0.971   5.775   4.589
 2184SOL    HW2 6552   1.019   5.772   4.745
 2185SOL     OW 6553   0.685   5.784   5.197
 2185SOL    HW1 6554   0.766   5.792   5.139
 2185SOL    HW2 6555   0.705   5.820   5.288
 2186SOL     OW 6556   0.083   5.925   3.668
 2186SOL    HW1 6557   5.988   5.917   3.697
 2186SOL    HW2 6558   0.124   0.006   3.709
 2187SOL     OW 6559   0.079   5.788   4.017
 2187SOL    HW1 6560   0.096   5.862   3.952
 2187SOL    HW2 6561   0.150   5.718   4.007
 2188SOL     OW 6562   1.166   5.902   4.165
 2188SOL    HW1 6563   1.239   5.834   4.162
 2188SOL    HW2 6564   1.203   5.988   4.201
 2189SOL     OW 6565   1.776   5.867   5.338
 2189SOL    HW1 6566   1.766   5.945   5.276
 2189SOL    HW2 6567   1.689   5.853   5.387
 2190SOL     OW 6568   1.798   5.770   4.962
 2190SOL    HW1 6569   1.807   5.675   4.991
 2190SOL    HW2 6570   1.821   5.777   4.865
 2191SOL     OW 6571   1.403   5.799   4.853
 2191SOL    HW1 6572   1.489   5.748   4.864
 2191SOL    HW2 6573   1.383   5.848   4.938
 2192SOL     OW 6574   1.034   5.619   4.865
 2192SOL    HW1 6575   0.967   5.561   4.820
 2192SOL    HW2 6576   1.109   5.563   4.899
 2193SOL     OW 6577   1.387   5.652   3.875
 2193SOL    HW1 6578   1.437   5.579   3.829
 2193SOL    HW2 6579   1.299   5.618   3.907
 2194SOL     OW 6580   1.337   0.069   4.434
 2194SOL    HW1 6581   1.263   0.135   4.425
 2194SOL    HW2 6582   1.317   0.005   4.508
 2195SOL     OW 6583   1.576   5.826   4.623
 2195SOL    HW1 6584   1.482   5.840   4.656
 2195SOL    HW2 6585   1.598   5.898   4.556
 2196SOL     OW 6586   1.727   0.185   5.799
 2196SOL    HW1 6587   1.732   0.169   5.700
 2196SOL    HW2 6588   1.747   0.099   5.847
 2197SOL     OW 6589   1.040   0.221   5.989
 2197SOL    HW1 6590   1.085   0.311   5.992
 2197SOL    HW2 6591   0.953   0.229   5.941
 2198SOL     OW 6592   0.878   5.968   5.745
 2198SOL    HW1 6593   0.963   5.996   5.701
 2198SOL    HW2 6594   0.861   5.872   5.726
 2199SOL     OW 6595   0.303   0.340   0.044
 2199SOL    HW1 6596   0.402   0.353   0.038
 2199SOL    HW2 6597   0.284   0.245   0.067
 2200SOL     OW 6598   0.635   5.687   5.650
 2200SOL    HW1 6599   0.691   5.609   5.676
 2200SOL    HW2 6600   0.571   5.659   5.578
 2201SOL     OW 6601   0.285   5.616   5.784
 2201SOL    HW1 6602   0.299   5.690   5.718
 2201SOL    HW2 6603   0.372   5.573   5.805
 2202SOL     OW 6604   0.576   5.863   5.889
 2202SOL    HW1 6605   0.558   5.789   5.823
 2202SOL    HW2 6606   0.567   5.951   5.843
 2203SOL     OW 6607   0.297   5.644   0.207
 2203SOL    HW1 6608   0.308   5.743   0.197
 2203SOL    HW2 6609   0.377   5.606   0.254
 2204SOL     OW 6610   1.543   5.878   5.700
 2204SOL    HW1 6611   1.502   5.789   5.717
 2204SOL    HW2 6612   1.547   5.931   5.785
 2205SOL     OW 6613   0.803   0.186   5.881
 2205SOL    HW1 6614   0.827   0.094   5.848
 2205SOL    HW2 6615   0.705   0.199   5.874
 2206SOL     OW 6616   1.701   5.676   0.165
 2206SOL    HW1 6617   1.729   5.717   0.078
 2206SOL    HW2 6618   1.650   5.592   0.147
 2207SOL     OW 6619   0.103   5.931   5.526
 2207SOL    HW1 6620   0.020   5.903   5.576
 2207SOL    HW2 6621   0.114   0.030   5.533
 2208SOL     OW 6622   0.093   5.820   5.830
 2208SOL    HW1 6623   0.149   5.887   5.879
 2208SOL    HW2 6624   0.129   5.729   5.847
 2209SOL     OW 6625   1.395   5.663   5.734
 2209SOL    HW1 6626   1.442   5.586   5.691
 2209SOL    HW2 6627   1.309   5.631   5.774
 2210SOL     OW 6628   2.099   0.698   0.124
 2210SOL    HW1 6629   2.033   0.657   0.186
 2210SOL    HW2 6630   2.127   0.631   0.055
 2211SOL     OW 6631   2.101   0.266   0.978
 2211SOL    HW1 6632   2.150   0.204   1.040
 2211SOL    HW2 6633   2.008   0.232   0.964
 2212SOL     OW 6634   1.862   0.339   0.674
 2212SOL    HW1 6635   1.790   0.390   0.721
 2212SOL    HW2 6636   1.821   0.283   0.602
 2213SOL     OW 6637   2.402   1.297   1.177
 2213SOL    HW1 6638   2.323   1.293   1.116
 2213SOL    HW2 6639   2.425   1.392   1.197
 2214SOL     OW 6640   3.428   1.510   0.701
 2214SOL    HW1 6641   3.391   1.480   0.789
 2214SOL    HW2 6642   3.353   1.528   0.637
 2215SOL     OW 6643   2.976   0.672   0.662
 2215SOL    HW1 6644   3.034   0.753   0.669
 2215SOL    HW2 6645   2.904   0.677   0.731
 2216SOL     OW 6646   3.614   0.612   0.188
 2216SOL    HW1 6647   3.570   0.605   0.099
 2216SOL    HW2 6648   3.574   0.545   0.251
 2217SOL     OW 6649   2.598   1.160   1.056
 2217SOL    HW1 6650   2.516   1.196   1.100
 2217SOL    HW2 6651   2.647   1.234   1.010
 2218SOL     OW 6652   2.712   0.807   1.794
 2218SOL    HW1 6653   2.691   0.897   1.832
 2218SOL    HW2 6654   2.751   0.817   1.703
 2219SOL     OW 6655   2.517   0.988   0.700
 2219SOL    HW1 6656   2.599   0.977   0.755
 2219SOL    HW2 6657   2.457   1.056   0.743
 2220SOL     OW 6658   2.558   1.149   1.802
 2220SOL    HW1 6659   2.610   1.233   1.813
 2220SOL    HW2 6660   2.462   1.171   1.781
 2221SOL     OW 6661   2.199   1.442   1.041
 2221SOL    HW1 6662   2.118   1.407   0.994
 2221SOL    HW2 6663   2.252   1.499   0.977
 2222SOL     OW 6664   3.340   1.519   1.349
 2222SOL    HW1 6665   3.407   1.593   1.359
 2222SOL    HW2 6666   3.262   1.536   1.409
 2223SOL     OW 6667   2.316   0.437   1.463
 2223SOL    HW1 6668   2.390   0.369   1.457
 2223SOL    HW2 6669   2.232   0.391   1.492
 2224SOL     OW 6670   3.445   0.444   0.739
 2224SOL    HW1 6671   3.374   0.472   0.674
 2224SOL    HW2 6672   3.446   0.508   0.816
 2225SOL     OW 6673   2.106   1.706   0.514
 2225SOL    HW1 6674   2.142   1.795   0.539
 2225SOL    HW2 6675   2.129   1.687   0.418
 2226SOL     OW 6676   2.969   1.336   1.694
 2226SOL    HW1 6677   3.026   1.345   1.776
 2226SOL    HW2 6678   2.915   1.252   1.700
 2227SOL     OW 6679   2.113   1.440   0.536
 2227SOL    HW1 6680   2.108   1.539   0.541
 2227SOL    HW2 6681   2.044   1.399   0.595
 2228SOL     OW 6682   2.102   1.075   0.886
 2228SOL    HW1 6683   2.104   0.983   0.925
 2228SOL    HW2 6684   2.069   1.139   0.955
 2229SOL     OW 6685   2.490   1.771   1.450
 2229SOL    HW1 6686   2.398   1.743   1.478
 2229SOL    HW2 6687   2.506   1.866   1.478
 2230SOL     OW 6688   2.465   0.945   0.122
 2230SOL    HW1 6689   2.400   1.019   0.104
 2230SOL    HW2 6690   2.539   0.978   0.180
 2231SOL     OW 6691   3.545   0.098   1.494
 2231SOL    HW1 6692   3.494   0.148   1.424
 2231SOL    HW2 6693   3.530   0.141   1.583
 2232SOL     OW 6694   1.987   0.637   0.583
 2232SOL    HW1 6695   1.940   0.552   0.609
 2232SOL    HW2 6696   1.977   0.704   0.656
 2233SOL     OW 6697   3.752   1.738   0.340
 2233SOL    HW1 6698   3.747   1.724   0.438
 2233SOL    HW2 6699   3.764   1.835   0.321
 2234SOL     OW 6700   1.847   1.538   0.160
 2234SOL    HW1 6701   1.861   1.467   0.229
 2234SOL    HW2 6702   1.870   1.627   0.198
 2235SOL     OW 6703   3.530   0.901   0.668
 2235SOL    HW1 6704   3.611   0.868   0.620
 2235SOL    HW2 6705   3.489   0.976   0.617
 2236SOL     OW 6706   3.485   1.112   0.507
 2236SOL    HW1 6707   3.513   1.125   0.412
 2236SOL    HW2 6708   3.524   1.185   0.563
 2237SOL     OW 6709   1.993   0.733   1.595
 2237SOL    HW1 6710   2.092   0.732   1.584
 2237SOL    HW2 6711   1.958   0.825   1.577
 2238SOL     OW 6712   2.463   1.381   0.704
 2238SOL    HW1 6713   2.407   1.299   0.717
 2238SOL    HW2 6714   2.446   1.418   0.612
 2239SOL     OW 6715   3.164   1.230   1.437
 2239SOL    HW1 6716   3.171   1.169   1.358
 2239SOL    HW2 6717   3.234   1.206   1.504
 2240SOL     OW 6718   2.665   0.018   0.578
 2240SOL    HW1 6719   2.704   0.088   0.518
 2240SOL    HW2 6720   2.566   0.016   0.568
 2241SOL     OW 6721   2.067   0.962   1.266
 2241SOL    HW1 6722   2.147   0.908   1.240
 2241SOL    HW2 6723   1.985   0.919   1.228
 2242SOL     OW 6724   3.339   1.066   0.201
 2242SOL    HW1 6725   3.262   1.010   0.233
 2242SOL    HW2 6726   3.425   1.025   0.233
 2243SOL     OW 6727   3.070   1.815   1.626
 2243SOL    HW1 6728   3.039   1.876   1.553
 2243SOL    HW2 6729   3.093   1.725   1.587
 2244SOL     OW 6730   2.157   0.223   1.824
 2244SOL    HW1 6731   2.213   0.305   1.811
 2244SOL    HW2 6732   2.063   0.250   1.846
 2245SOL     OW 6733   3.332   1.406   0.924
 2245SOL    HW1 6734   3.272   1.414   1.004
 2245SOL    HW2 6735   3.337   1.311   0.896
 2246SOL     OW 6736   3.527   1.734   0.558
 2246SOL    HW1 6737   3.472   1.720   0.475
 2246SOL    HW2 6738   3.507   1.661   0.623
 2247SOL     OW 6739   2.476   0.732   0.308
 2247SOL    HW1 6740   2.481   0.800   0.235
 2247SOL    HW2 6741   2.393   0.745   0.361
 2248SOL     OW 6742   3.186   0.359   0.946
 2248SOL    HW1 6743   3.092   0.325   0.943
 2248SOL    HW2 6744   3.240   0.302   1.007
 2249SOL     OW 6745   3.430   1.659   0.311
 2249SOL    HW1 6746   3.530   1.657   0.312
 2249SOL    HW2 6747   3.397   1.658   0.217
 2250SOL     OW 6748   2.659   0.622   1.466
 2250SOL    HW1 6749   2.632   0.583   1.554
 2250SOL    HW2 6750   2.630   0.561   1.392
 2251SOL     OW 6751   3.251   0.531   1.691
 2251SOL    HW1 6752   3.230   0.560   1.785
 2251SOL    HW2 6753   3.323   0.461   1.694
 2252SOL     OW 6754   2.835   0.876   1.565
 2252SOL    HW1 6755   2.894   0.806   1.526
 2252SOL    HW2 6756   2.784   0.922   1.491
 2253SOL     OW 6757   2.872   0.401   1.224
 2253SOL    HW1 6758   2.787   0.402   1.275
 2253SOL    HW2 6759   2.859   0.353   1.137
 2254SOL     OW 6760   2.925   0.677   0.395
 2254SOL    HW1 6761   2.934   0.691   0.494
 2254SOL    HW2 6762   2.840   0.629   0.376
 2255SOL     OW 6763   1.950   0.811   0.783
 2255SOL    HW1 6764   2.025   0.788   0.844
 2255SOL    HW2 6765   1.890   0.879   0.827
 2256SOL     OW 6766   2.002   1.819   1.570
 2256SOL    HW1 6767   2.008   1.810   1.670
 2256SOL    HW2 6768   1.935   1.891   1.548
 2257SOL     OW 6769   2.706   0.363   0.180
 2257SOL    HW1 6770   2.769   0.396   0.109
 2257SOL    HW2 6771   2.740   0.277   0.217
 2258SOL     OW 6772   3.582   0.603   1.834
 2258SOL    HW1 6773   3.532   0.685   1.805
 2258SOL    HW2 6774   3.592   0.541   1.756
 2259SOL     OW 6775   3.216   1.158   0.562
 2259SOL    HW1 6776   3.306   1.142   0.521
 2259SOL    HW2 6777   3.152   1.188   0.492
 2260SOL     OW 6778   2.407   0.217   0.894
 2260SOL    HW1 6779   2.421   0.213   0.992
 2260SOL    HW2 6780   2.413   0.311   0.862
 2261SOL     OW 6781   2.884   1.455   0.454
 2261SOL    HW1 6782   2.825   1.528   0.419
 2261SOL    HW2 6783   2.925   1.484   0.541
 2262SOL     OW 6784   2.211   1.796   0.866
 2262SOL    HW1 6785   2.264   1.712   0.876
 2262SOL    HW2 6786   2.270   1.875   0.881
 2263SOL     OW 6787   3.663   1.048   0.902
 2263SOL    HW1 6788   3.624   1.086   0.818
 2263SOL    HW2 6789   3.593   1.046   0.974
 2264SOL     OW 6790   3.124   1.559   1.525
 2264SOL    HW1 6791   3.144   1.465   1.551
 2264SOL    HW2 6792   3.026   1.568   1.505
 2265SOL     OW 6793   2.124   0.943   0.224
 2265SOL    HW1 6794   2.219   0.972   0.233
 2265SOL    HW2 6795   2.120   0.856   0.175
 2266SOL     OW 6796   3.323   0.741   0.726
 2266SOL    HW1 6797   3.327   0.693   0.814
 2266SOL    HW2 6798   3.410   0.788   0.710
 2267SOL     OW 6799   2.308   1.284   1.770
 2267SOL    HW1 6800   2.292   1.294   1.672
 2267SOL    HW2 6801   2.221   1.269   1.817
 2268SOL     OW 6802   3.010   1.757   0.242
 2268SOL    HW1 6803   2.933   1.717   0.293
 2268SOL    HW2 6804   3.030   1.700   0.162
 2269SOL     OW 6805   2.074   0.304   1.521
 2269SOL    HW1 6806   1.990   0.340   1.481
 2269SOL    HW2 6807   2.054   0.267   1.612
 2270SOL     OW 6808   3.452   1.361   0.094
 2270SOL    HW1 6809   3.482   1.451   0.062
 2270SOL    HW2 6810   3.460   1.295   0.019
 2271SOL     OW 6811   2.356   1.709   0.325
 2271SOL    HW1 6812   2.376   1.787   0.384
 2271SOL    HW2 6813   2.429   1.697   0.258
 2272SOL     OW 6814   3.235   0.112   0.416
 2272SOL    HW1 6815   3.219   0.109   0.317
 2272SOL    HW2 6816   3.333   0.123   0.434
 2273SOL     OW 6817   2.120   1.805   1.179
 2273SOL    HW1 6818   2.144   1.724   1.231
 2273SOL    HW2 6819   2.107   1.781   1.083
 2274SOL     OW 6820   2.804   1.712   0.901
 2274SOL    HW1 6821   2.855   1.648   0.959
 2274SOL    HW2 6822   2.762   1.663   0.825
 2275SOL     OW 6823   2.236   0.676   0.459
 2275SOL    HW1 6824   2.256   0.578   0.470
 2275SOL    HW2 6825   2.142   0.694   0.488
 2276SOL     OW 6826   3.392   0.231   1.761
 2276SOL    HW1 6827   3.384   0.272   1.852
 2276SOL    HW2 6828   3.317   0.167   1.747
 2277SOL     OW 6829   2.487   0.069   0.117
 2277SOL    HW1 6830   2.580   0.070   0.081
 2277SOL    HW2 6831   2.425   0.110   0.050
 2278SOL     OW 6832   2.628   0.264   1.754
 2278SOL    HW1 6833   2.720   0.223   1.757
 2278SOL    HW2 6834   2.591   0.268   1.847
 2279SOL     OW 6835   2.774   1.536   1.184
 2279SOL    HW1 6836   2.734   1.483   1.110
 2279SOL    HW2 6837   2.839   1.479   1.235
 2280SOL     OW 6838   3.204   0.594   1.441
 2280SOL    HW1 6839   3.232   0.578   1.536
 2280SOL    HW2 6840   3.246   0.679   1.408
 2281SOL     OW 6841   2.644   1.391   0.914
 2281SOL    HW1 6842   2.724   1.436   0.877
 2281SOL    HW2 6843   2.582   1.365   0.840
 2282SOL     OW 6844   2.790   0.492   0.896
 2282SOL    HW1 6845   2.737   0.479   0.812
 2282SOL    HW2 6846   2.843   0.409   0.914
 2283SOL     OW 6847   2.421   0.068   0.501
 2283SOL    HW1 6848   2.346   0.054   0.565
 2283SOL    HW2 6849   2.403   0.151   0.448
 2284SOL     OW 6850   3.205   1.211   5.981
 2284SOL    HW1 6851   3.270   1.146   0.021
 2284SOL    HW2 6852   3.156   1.258   0.055
 2285SOL     OW 6853   2.174   5.998   0.165
 2285SOL    HW1 6854   2.202   0.084   0.121
 2285SOL    HW2 6855   2.240   5.974   0.236
 2286SOL     OW 6856   2.848   0.300   0.496
 2286SOL    HW1 6857   2.791   0.261   0.424
 2286SOL    HW2 6858   2.943   0.302   0.465
 2287SOL     OW 6859   2.952   0.673   1.445
 2287SOL    HW1 6860   2.881   0.603   1.453
 2287SOL    HW2 6861   3.041   0.629   1.437
 2288SOL     OW 6862   3.079   1.566   0.811
 2288SOL    HW1 6863   3.123   1.600   0.728
 2288SOL    HW2 6864   3.146   1.563   0.885
 2289SOL     OW 6865   2.305   1.162   0.753
 2289SOL    HW1 6866   2.234   1.126   0.812
 2289SOL    HW2 6867   2.270   1.169   0.659
 2290SOL     OW 6868   3.157   1.827   0.602
 2290SOL    HW1 6869   3.183   1.893   0.532
 2290SOL    HW2 6870   3.105   1.874   0.674
 2291SOL     OW 6871   2.863   0.530   0.030
 2291SOL    HW1 6872   2.792   0.581   5.982
 2291SOL    HW2 6873   2.890   0.580   0.112
 2292SOL     OW 6874   1.939   0.551   1.412
 2292SOL    HW1 6875   2.022   0.533   1.360
 2292SOL    HW2 6876   1.954   0.628   1.474
 2293SOL     OW 6877   2.409   0.276   1.198
 2293SOL    HW1 6878   2.458   0.215   1.261
 2293SOL    HW2 6879   2.310   0.261   1.208
 2294SOL     OW 6880   2.700   0.437   0.650
 2294SOL    HW1 6881   2.650   0.493   0.584
 2294SOL    HW2 6882   2.766   0.379   0.602
 2295SOL     OW 6883   2.867   0.049   0.733
 2295SOL    HW1 6884   2.787   0.054   0.673
 2295SOL    HW2 6885   2.860   5.968   0.791
 2296SOL     OW 6886   3.281   1.152   0.854
 2296SOL    HW1 6887   3.221   1.092   0.908
 2296SOL    HW2 6888   3.249   1.154   0.759
 2297SOL     OW 6889   3.359   0.583   0.949
 2297SOL    HW1 6890   3.297   0.504   0.943
 2297SOL    HW2 6891   3.404   0.583   1.038
 2298SOL     OW 6892   3.741   0.772   0.376
 2298SOL    HW1 6893   3.784   0.724   0.453
 2298SOL    HW2 6894   3.686   0.707   0.323
 2299SOL     OW 6895   2.338   1.395   0.201
 2299SOL    HW1 6896   2.252   1.373   0.247
 2299SOL    HW2 6897   2.339   1.351   0.111
 2300SOL     OW 6898   3.585   1.288   0.714
 2300SOL    HW1 6899   3.681   1.301   0.689
 2300SOL    HW2 6900   3.537   1.375   0.706
 2301SOL     OW 6901   3.270   0.614   0.142
 2301SOL    HW1 6902   3.192   0.576   0.193
 2301SOL    HW2 6903   3.309   0.543   0.084
 2302SOL     OW 6904   2.404   0.264   0.328
 2302SOL    HW1 6905   2.392   0.199   0.253
 2302SOL    HW2 6906   2.392   0.358   0.294
 2303SOL     OW 6907   3.610   1.277   1.567
 2303SOL    HW1 6908   3.686   1.215   1.588
 2303SOL    HW2 6909   3.641   1.372   1.577
 2304SOL     OW 6910   2.917   1.348   1.365
 2304SOL    HW1 6911   2.824   1.328   1.394
 2304SOL    HW2 6912   2.982   1.301   1.426
 2305SOL     OW 6913   3.468   1.668   1.655
 2305SOL    HW1 6914   3.456   1.683   1.557
 2305SOL    HW2 6915   3.550   1.613   1.672
 2306SOL     OW 6916   2.898   1.181   1.126
 2306SOL    HW1 6917   2.920   1.244   1.200
 2306SOL    HW2 6918   2.896   1.231   1.039
 2307SOL     OW 6919   3.482   1.075   1.106
 2307SOL    HW1 6920   3.484   1.156   1.164
 2307SOL    HW2 6921   3.425   1.092   1.026
 2308SOL     OW 6922   2.800   0.156   1.362
 2308SOL    HW1 6923   2.822   0.085   1.296
 2308SOL    HW2 6924   2.875   0.165   1.428
 2309SOL     OW 6925   2.825   1.092   1.719
 2309SOL    HW1 6926   2.727   1.102   1.736
 2309SOL    HW2 6927   2.840   1.018   1.654
 2310SOL     OW 6928   2.542   1.060   0.400
 2310SOL    HW1 6929   2.522   1.051   0.498
 2310SOL    HW2 6930   2.616   0.997   0.376
 2311SOL     OW 6931   2.277   0.796   1.257
 2311SOL    HW1 6932   2.355   0.809   1.319
 2311SOL    HW2 6933   2.234   0.708   1.275
 2312SOL     OW 6934   3.134   0.394   1.289
 2312SOL    HW1 6935   3.162   0.476   1.338
 2312SOL    HW2 6936   3.043   0.408   1.250
 2313SOL     OW 6937   1.928   1.543   1.331
 2313SOL    HW1 6938   1.875   1.615   1.287
 2313SOL    HW2 6939   2.024   1.570   1.337
 2314SOL     OW 6940   2.224   1.147   0.502
 2314SOL    HW1 6941   2.192   1.191   0.418
 2314SOL    HW2 6942   2.272   1.062   0.479
 2315SOL     OW 6943   2.431   0.538   0.874
 2315SOL    HW1 6944   2.424   0.607   0.803
 2315SOL    HW2 6945   2.509   0.558   0.933
 2316SOL     OW 6946   3.123   1.348   0.365
 2316SOL    HW1 6947   3.168   1.422   0.413
 2316SOL    HW2 6948   3.026   1.346   0.390
 2317SOL     OW 6949   3.194   1.431   1.146
 2317SOL    HW1 6950   3.244   1.465   1.225
 2317SOL    HW2 6951   3.124   1.366   1.176
 2318SOL     OW 6952   3.496   0.640   0.496
 2318SOL    HW1 6953   3.416   0.656   0.554
 2318SOL    HW2 6954   3.492   0.701   0.417
 2319SOL     OW 6955   2.200   1.547   1.287
 2319SOL    HW1 6956   2.201   1.498   1.199
 2319SOL    HW2 6957   2.293   1.570   1.314
 2320SOL     OW 6958   2.254   0.725   1.569
 2320SOL    HW1 6959   2.307   0.785   1.509
 2320SOL    HW2 6960   2.316   0.663   1.617
 2321SOL     OW 6961   3.486   0.818   1.677
 2321SOL    HW1 6962   3.387   0.835   1.670
 2321SOL    HW2 6963   3.532   0.860   1.599
 2322SOL     OW 6964   2.868   0.141   1.764
 2322SOL    HW1 6965   2.936   0.194   1.712
 2322SOL    HW2 6966   2.839   0.062   1.709
 2323SOL     OW 6967   2.320   0.001   1.746
 2323SOL    HW1 6968   2.343   0.004   1.649
 2323SOL    HW2 6969   2.289   0.091   1.775
 2324SOL     OW 6970   2.403   0.864   1.003
 2324SOL    HW1 6971   2.455   0.950   1.007
 2324SOL    HW2 6972   2.367   0.843   1.094
 2325SOL     OW 6973   3.192   0.837   1.055
 2325SOL    HW1 6974   3.102   0.839   1.011
 2325SOL    HW2 6975   3.237   0.750   1.036
 2326SOL     OW 6976   3.073   0.506   0.266
 2326SOL    HW1 6977   3.098   0.438   0.335
 2326SOL    HW2 6978   3.014   0.575   0.308
 2327SOL     OW 6979   2.149   0.192   1.275
 2327SOL    HW1 6980   2.127   0.206   1.372
 2327SOL    HW2 6981   2.166   0.095   1.258
 2328SOL     OW 6982   1.913   1.272   1.296
 2328SOL    HW1 6983   1.969   1.226   1.365
 2328SOL    HW2 6984   1.915   1.371   1.311
 2329SOL     OW 6985   2.631   0.649   1.048
 2329SOL    HW1 6986   2.700   0.597   0.998
 2329SOL    HW2 6987   2.613   0.735   0.999
 2330SOL     OW 6988   3.642   0.967   1.833
 2330SOL    HW1 6989   3.591   0.902   1.776
 2330SOL    HW2 6990   3.597   0.978   1.921
 2331SOL     OW 6991   2.205   0.022   0.654
 2331SOL    HW1 6992   2.181   0.119   0.655
 2331SOL    HW2 6993   2.126   5.968   0.684
 2332SOL     OW 6994   3.502   0.392   0.358
 2332SOL    HW1 6995   3.536   0.309   0.402
 2332SOL    HW2 6996   3.460   0.452   0.426
 2333SOL     OW 6997   2.915   0.759   0.954
 2333SOL    HW1 6998   2.909   0.764   1.054
 2333SOL    HW2 6999   2.868   0.677   0.922
 2334SOL     OW 7000   2.854   1.578   1.723
 2334SOL    HW1 7001   2.816   1.617   1.639
 2334SOL    HW2 7002   2.891   1.488   1.704
 2335SOL     OW 7003   3.704   1.529   1.632
 2335SOL    HW1 7004   3.720   1.562   1.540
 2335SOL    HW2 7005   3.789   1.535   1.685
 2336SOL     OW 7006   2.219   0.943   1.770
 2336SOL    HW1 7007   2.258   0.935   1.861
 2336SOL    HW2 7008   2.236   0.859   1.718
 2337SOL     OW 7009   3.352   0.270   0.172
 2337SOL    HW1 7010   3.394   0.183   0.149
 2337SOL    HW2 7011   3.408   0.317   0.241
 2338SOL     OW 7012   3.188   0.846   0.042
 2338SOL    HW1 7013   3.217   0.755   0.071
 2338SOL    HW2 7014   3.148   0.840   5.950
 2339SOL     OW 7015   2.929   1.356   0.896
 2339SOL    HW1 7016   2.922   1.282   0.829
 2339SOL    HW2 7017   2.976   1.434   0.854
 2340SOL     OW 7018   2.155   0.766   0.962
 2340SOL    HW1 7019   2.246   0.804   0.943
 2340SOL    HW2 7020   2.164   0.673   0.997
 2341SOL     OW 7021   2.202   0.502   1.014
 2341SOL    HW1 7022   2.165   0.410   1.004
 2341SOL    HW2 7023   2.275   0.516   0.947
 2342SOL     OW 7024   3.048   0.365   1.698
 2342SOL    HW1 7025   2.970   0.417   1.731
 2342SOL    HW2 7026   3.124   0.427   1.679
 2343SOL     OW 7027   3.037   0.196   1.504
 2343SOL    HW1 7028   3.045   0.267   1.574
 2343SOL    HW2 7029   3.046   0.236   1.413
 2344SOL     OW 7030   1.953   1.781   0.941
 2344SOL    HW1 7031   1.912   1.698   0.902
 2344SOL    HW2 7032   2.043   1.795   0.899
 2345SOL     OW 7033   2.376   1.588   0.913
 2345SOL    HW1 7034   2.451   1.654   0.923
 2345SOL    HW2 7035   2.401   1.520   0.844
 2346SOL     OW 7036   2.853   0.772   1.212
 2346SOL    HW1 7037   2.899   0.773   1.301
 2346SOL    HW2 7038   2.773   0.713   1.216
 2347SOL     OW 7039   1.872   0.533   1.123
 2347SOL    HW1 7040   1.954   0.512   1.070
 2347SOL    HW2 7041   1.891   0.518   1.220
 2348SOL     OW 7042   2.087   0.502   1.719
 2348SOL    HW1 7043   2.117   0.450   1.639
 2348SOL    HW2 7044   2.047   0.589   1.688
 2349SOL     OW 7045   3.237   0.925   1.647
 2349SOL    HW1 7046   3.270   1.020   1.643
 2349SOL    HW2 7047   3.225   0.890   1.555
 2350SOL     OW 7048   2.689   0.578   0.334
 2350SOL    HW1 7049   2.673   0.504   0.269
 2350SOL    HW2 7050   2.610   0.639   0.335
 2351SOL     OW 7051   3.483   0.554   1.191
 2351SOL    HW1 7052   3.477   0.507   1.279
 2351SOL    HW2 7053   3.577   0.550   1.157
 2352SOL     OW 7054   2.098   1.529   1.726
 2352SOL    HW1 7055   2.092   1.603   1.793
 2352SOL    HW2 7056   2.092   1.441   1.773
 2353SOL     OW 7057   2.588   0.478   1.255
 2353SOL    HW1 7058   2.514   0.410   1.245
 2353SOL    HW2 7059   2.586   0.541   1.178
 2354SOL     OW 7060   2.772   1.663   1.476
 2354SOL    HW1 7061   2.773   1.614   1.390
 2354SOL    HW2 7062   2.756   1.761   1.459
 2355SOL     OW 7063   2.364   0.503   0.207
 2355SOL    HW1 7064   2.415   0.581   0.243
 2355SOL    HW2 7065   2.265   0.520   0.216
 2356SOL     OW 7066   2.059   1.137   1.463
 2356SOL    HW1 7067   2.031   1.096   1.550
 2356SOL    HW2 7068   2.058   1.066   1.392
 2357SOL     OW 7069   3.160   1.047   1.229
 2357SOL    HW1 7070   3.192   0.983   1.159
 2357SOL    HW2 7071   3.062   1.062   1.217
 2358SOL     OW 7072   3.188   0.876   0.329
 2358SOL    HW1 7073   3.093   0.868   0.358
 2358SOL    HW2 7074   3.212   0.800   0.270
 2359SOL     OW 7075   3.649   1.703   1.147
 2359SOL    HW1 7076   3.717   1.725   1.077
 2359SOL    HW2 7077   3.604   1.617   1.124
 2360SOL     OW 7078   3.099   1.695   1.146
 2360SOL    HW1 7079   3.175   1.753   1.115
 2360SOL    HW2 7080   3.121   1.599   1.129
 2361SOL     OW 7081   1.974   1.266   1.033
 2361SOL    HW1 7082   1.957   1.263   1.132
 2361SOL    HW2 7083   1.901   1.219   0.985
 2362SOL     OW 7084   2.573   1.674   1.732
 2362SOL    HW1 7085   2.476   1.696   1.721
 2362SOL    HW2 7086   2.619   1.684   1.644
 2363SOL     OW 7087   2.772   0.026   0.125
 2363SOL    HW1 7088   2.817   0.096   0.071
 2363SOL    HW2 7089   2.838   5.988   0.190
 2364SOL     OW 7090   3.567   0.174   0.499
 2364SOL    HW1 7091   3.642   0.142   0.441
 2364SOL    HW2 7092   3.536   0.099   0.557
 2365SOL     OW 7093   3.197   1.598   0.457
 2365SOL    HW1 7094   3.273   1.604   0.393
 2365SOL    HW2 7095   3.177   1.689   0.494
 2366SOL     OW 7096   2.010   1.800   1.840
 2366SOL    HW1 7097   1.932   1.740   1.857
 2366SOL    HW2 7098   2.039   1.843   1.925
 2367SOL     OW 7099   3.133   0.908   0.647
 2367SOL    HW1 7100   3.208   0.849   0.676
 2367SOL    HW2 7101   3.170   0.982   0.589
 2368SOL     OW 7102   2.637   1.251   1.397
 2368SOL    HW1 7103   2.614   1.316   1.470
 2368SOL    HW2 7104   2.566   1.253   1.327
 2369SOL     OW 7105   2.545   1.607   0.154
 2369SOL    HW1 7106   2.545   1.599   0.055
 2369SOL    HW2 7107   2.486   1.537   0.194
 2370SOL     OW 7108   3.505   1.727   1.380
 2370SOL    HW1 7109   3.562   1.730   1.298
 2370SOL    HW2 7110   3.483   1.821   1.408
 2371SOL     OW 7111   3.740   0.130   0.956
 2371SOL    HW1 7112   3.755   0.056   0.891
 2371SOL    HW2 7113   3.650   0.170   0.942
 2372SOL     OW 7114   2.135   0.274   0.696
 2372SOL    HW1 7115   2.043   0.307   0.674
 2372SOL    HW2 7116   2.153   0.289   0.793
 2373SOL     OW 7117   3.099   1.587   0.033
 2373SOL    HW1 7118   3.066   1.500   0.069
 2373SOL    HW2 7119   3.044   1.614   5.955
 2374SOL     OW 7120   2.712   1.005   1.368
 2374SOL    HW1 7121   2.757   1.002   1.279
 2374SOL    HW2 7122   2.676   1.097   1.384
 2375SOL     OW 7123   2.761   0.897   0.271
 2375SOL    HW1 7124   2.832   0.930   0.209
 2375SOL    HW2 7125   2.784   0.804   0.301
 2376SOL     OW 7126   3.347   1.671   0.064
 2376SOL    HW1 7127   3.255   1.631   0.071
 2376SOL    HW2 7128   3.380   1.659   5.970
 2377SOL     OW 7129   2.227   1.324   1.521
 2377SOL    HW1 7130   2.228   1.386   1.442
 2377SOL    HW2 7131   2.159   1.252   1.505
 2378SOL     OW 7132   3.478   1.289   1.290
 2378SOL    HW1 7133   3.546   1.280   1.363
 2378SOL    HW2 7134   3.412   1.360   1.314
 2379SOL     OW 7135   2.876   1.141   0.732
 2379SOL    HW1 7136   2.829   1.060   0.765
 2379SOL    HW2 7137   2.934   1.117   0.654
 2380SOL     OW 7138   2.938   0.191   0.948
 2380SOL    HW1 7139   2.921   0.148   0.859
 2380SOL    HW2 7140   2.879   0.149   1.017
 2381SOL     OW 7141   2.494   1.478   0.443
 2381SOL    HW1 7142   2.534   1.413   0.379
 2381SOL    HW2 7143   2.415   1.522   0.400
 2382SOL     OW 7144   3.588   0.392   1.399
 2382SOL    HW1 7145   3.656   0.466   1.402
 2382SOL    HW2 7146   3.619   0.320   1.336
 2383SOL     OW 7147   2.089   1.335   0.295
 2383SOL    HW1 7148   2.010   1.274   0.290
 2383SOL    HW2 7149   2.094   1.375   0.386
 2384SOL     OW 7150   1.989   1.070   1.707
 2384SOL    HW1 7151   1.907   1.031   1.747
 2384SOL    HW2 7152   2.069   1.019   1.738
 2385SOL     OW 7153   2.556   0.225   1.459
 2385SOL    HW1 7154   2.639   0.192   1.415
 2385SOL    HW2 7155   2.576   0.253   1.552
 2386SOL     OW 7156   1.987   0.392   0.043
 2386SOL    HW1 7157   1.971   0.297   0.015
 2386SOL    HW2 7158   1.972   0.452   5.964
 2387SOL     OW 7159   3.291   0.848   1.379
 2387SOL    HW1 7160   3.231   0.916   1.336
 2387SOL    HW2 7161   3.383   0.856   1.342
 2388SOL     OW 7162   1.938   0.174   0.335
 2388SOL    HW1 7163   1.933   0.273   0.327
 2388SOL    HW2 7164   2.009   0.139   0.274
 2389SOL     OW 7165   2.996   1.366   0.136
 2389SOL    HW1 7166   2.926   1.294   0.134
 2389SOL    HW2 7167   3.057   1.352   0.214
 2390SOL     OW 7168   2.481   0.820   1.440
 2390SOL    HW1 7169   2.529   0.905   1.422
 2390SOL    HW2 7170   2.547   0.749   1.464
 2391SOL     OW 7171   3.350   1.775   0.996
 2391SOL    HW1 7172   3.341   1.838   0.918
 2391SOL    HW2 7173   3.447   1.763   1.017
 2392SOL     OW 7174   2.591   0.542   1.708
 2392SOL    HW1 7175   2.606   0.606   1.782
 2392SOL    HW2 7176   2.618   0.450   1.737
 2393SOL     OW 7177   3.341   1.186   1.621
 2393SOL    HW1 7178   3.314   1.201   1.716
 2393SOL    HW2 7179   3.428   1.231   1.603
 2394SOL     OW 7180   2.239   1.713   1.540
 2394SOL    HW1 7181   2.152   1.763   1.531
 2394SOL    HW2 7182   2.220   1.620   1.572
 2395SOL     OW 7183   3.535   0.838   1.251
 2395SOL    HW1 7184   3.518   0.759   1.194
 2395SOL    HW2 7185   3.528   0.922   1.196
 2396SOL     OW 7186   3.110   0.339   0.459
 2396SOL    HW1 7187   3.152   0.248   0.457
 2396SOL    HW2 7188   3.117   0.377   0.552
 2397SOL     OW 7189   2.400   0.734   0.680
 2397SOL    HW1 7190   2.449   0.821   0.673
 2397SOL    HW2 7191   2.341   0.722   0.600
 2398SOL     OW 7192   3.594   0.385   1.665
 2398SOL    HW1 7193   3.577   0.390   1.567
 2398SOL    HW2 7194   3.532   0.318   1.706
 2399SOL     OW 7195   3.616   0.956   1.477
 2399SOL    HW1 7196   3.613   1.053   1.455
 2399SOL    HW2 7197   3.595   0.902   1.395
 2400SOL     OW 7198   2.696   1.406   5.995
 2400SOL    HW1 7199   2.706   1.375   0.090
 2400SOL    HW2 7200   2.751   1.488   5.981
 2401SOL     OW 7201   2.546   1.805   0.939
 2401SOL    HW1 7202   2.507   1.897   0.930
 2401SOL    HW2 7203   2.643   1.807   0.912
 2402SOL     OW 7204   2.728   0.945   0.890
 2402SOL    HW1 7205   2.803   0.885   0.919
 2402SOL    HW2 7206   2.703   1.006   0.965
 2403SOL     OW 7207   2.960   0.995   0.089
 2403SOL    HW1 7208   2.899   0.974   0.013
 2403SOL    HW2 7209   3.049   0.953   0.073
 2404SOL     OW 7210   3.720   1.532   0.884
 2404SOL    HW1 7211   3.648   1.529   0.815
 2404SOL    HW2 7212   3.692   1.477   0.963
 2405SOL     OW 7213   2.058   1.267   1.880
 2405SOL    HW1 7214   2.022   1.183   1.838
 2405SOL    HW2 7215   2.045   1.262   1.979
 2406SOL     OW 7216   1.982   1.233   0.655
 2406SOL    HW1 7217   1.990   1.188   0.744
 2406SOL    HW2 7218   2.047   1.192   0.591
 2407SOL     OW 7219   2.579   1.400   1.606
 2407SOL    HW1 7220   2.493   1.372   1.647
 2407SOL    HW2 7221   2.618   1.475   1.659
 2408SOL     OW 7222   3.679   0.204   1.237
 2408SOL    HW1 7223   3.690   0.123   1.293
 2408SOL    HW2 7224   3.705   0.184   1.143
 2409SOL     OW 7225   2.259   0.414   0.506
 2409SOL    HW1 7226   2.315   0.351   0.452
 2409SOL    HW2 7227   2.210   0.364   0.577
 2410SOL     OW 7228   3.542   1.467   1.095
 2410SOL    HW1 7229   3.459   1.454   1.040
 2410SOL    HW2 7230   3.545   1.399   1.168
 2411SOL     OW 7231   2.172   0.547   1.273
 2411SOL    HW1 7232   2.238   0.504   1.335
 2411SOL    HW2 7233   2.193   0.522   1.179
 2412SOL     OW 7234   2.677   1.563   0.701
 2412SOL    HW1 7235   2.692   1.614   0.616
 2412SOL    HW2 7236   2.587   1.519   0.698
 2413SOL     OW 7237   3.345   0.265   1.149
 2413SOL    HW1 7238   3.365   0.182   1.201
 2413SOL    HW2 7239   3.311   0.336   1.210
 2414SOL     OW 7240   2.874   5.954   1.193
 2414SOL    HW1 7241   2.805   5.955   1.121
 2414SOL    HW2 7242   2.964   5.937   1.154
 2415SOL     OW 7243   2.673   1.298   0.299
 2415SOL    HW1 7244   2.607   1.229   0.328
 2415SOL    HW2 7245   2.728   1.328   0.377
 2416SOL     OW 7246   2.495   1.559   1.273
 2416SOL    HW1 7247   2.488   1.637   1.336
 2416SOL    HW2 7248   2.586   1.560   1.231
 2417SOL     OW 7249   3.145   0.027   0.179
 2417SOL    HW1 7250   3.219   5.970   0.143
 2417SOL    HW2 7251   3.110   5.986   0.264
 2418SOL     OW 7252   3.134   0.452   0.693
 2418SOL    HW1 7253   3.080   0.536   0.693
 2418SOL    HW2 7254   3.159   0.428   0.787
 2419SOL     OW 7255   3.497   0.237   0.908
 2419SOL    HW1 7256   3.451   0.250   0.995
 2419SOL    HW2 7257   3.462   0.304   0.842
 2420SOL     OW 7258   1.906   1.144   0.323
 2420SOL    HW1 7259   1.974   1.097   0.267
 2420SOL    HW2 7260   1.880   1.086   0.400
 2421SOL     OW 7261   2.751   1.654   0.346
 2421SOL    HW1 7262   2.683   1.618   0.283
 2421SOL    HW2 7263   2.715   1.736   0.391
 2422SOL     OW 7264   2.107   0.665   2.002
 2422SOL    HW1 7265   2.021   0.666   2.054
 2422SOL    HW2 7266   2.092   0.621   1.914
 2423SOL     OW 7267   2.104   0.274   2.841
 2423SOL    HW1 7268   2.158   0.208   2.892
 2423SOL    HW2 7269   2.009   0.243   2.835
 2424SOL     OW 7270   1.861   0.347   2.517
 2424SOL    HW1 7271   1.768   0.361   2.552
 2424SOL    HW2 7272   1.856   0.311   2.424
 2425SOL     OW 7273   2.394   1.279   3.036
 2425SOL    HW1 7274   2.324   1.284   2.965
 2425SOL    HW2 7275   2.404   1.368   3.080
 2426SOL     OW 7276   3.421   1.514   2.574
 2426SOL    HW1 7277   3.378   1.476   2.656
 2426SOL    HW2 7278   3.352   1.523   2.502
 2427SOL     OW 7279   2.977   0.690   2.511
 2427SOL    HW1 7280   3.027   0.776   2.525
 2427SOL    HW2 7281   2.911   0.678   2.585
 2428SOL     OW 7282   3.587   0.574   2.110
 2428SOL    HW1 7283   3.592   0.581   2.010
 2428SOL    HW2 7284   3.521   0.503   2.135
 2429SOL     OW 7285   2.604   1.159   2.921
 2429SOL    HW1 7286   2.519   1.191   2.963
 2429SOL    HW2 7287   2.648   1.235   2.874
 2430SOL     OW 7288   2.703   0.808   3.658
 2430SOL    HW1 7289   2.696   0.899   3.699
 2430SOL    HW2 7290   2.735   0.816   3.564
 2431SOL     OW 7291   2.531   0.993   2.555
 2431SOL    HW1 7292   2.602   0.985   2.625
 2431SOL    HW2 7293   2.461   1.057   2.587
 2432SOL     OW 7294   2.552   1.146   3.671
 2432SOL    HW1 7295   2.604   1.231   3.677
 2432SOL    HW2 7296   2.458   1.165   3.643
 2433SOL     OW 7297   2.206   1.426   2.893
 2433SOL    HW1 7298   2.115   1.410   2.856
 2433SOL    HW2 7299   2.251   1.499   2.841
 2434SOL     OW 7300   3.331   1.521   3.209
 2434SOL    HW1 7301   3.400   1.593   3.219
 2434SOL    HW2 7302   3.255   1.539   3.272
 2435SOL     OW 7303   2.312   0.439   3.323
 2435SOL    HW1 7304   2.387   0.374   3.314
 2435SOL    HW2 7305   2.231   0.392   3.359
 2436SOL     OW 7306   3.432   0.434   2.598
 2436SOL    HW1 7307   3.343   0.465   2.564
 2436SOL    HW2 7308   3.484   0.512   2.631
 2437SOL     OW 7309   2.093   1.705   2.359
 2437SOL    HW1 7310   2.129   1.791   2.393
 2437SOL    HW2 7311   2.143   1.678   2.277
 2438SOL     OW 7312   2.967   1.338   3.560
 2438SOL    HW1 7313   3.023   1.348   3.643
 2438SOL    HW2 7314   2.913   1.254   3.567
 2439SOL     OW 7315   2.123   1.430   2.406
 2439SOL    HW1 7316   2.087   1.523   2.412
 2439SOL    HW2 7317   2.057   1.367   2.447
 2440SOL     OW 7318   2.093   1.091   2.741
 2440SOL    HW1 7319   2.100   0.998   2.778
 2440SOL    HW2 7320   2.057   1.152   2.812
 2441SOL     OW 7321   2.488   1.768   3.310
 2441SOL    HW1 7322   2.396   1.741   3.338
 2441SOL    HW2 7323   2.504   1.864   3.332
 2442SOL     OW 7324   2.458   0.951   2.026
 2442SOL    HW1 7325   2.472   1.011   1.947
 2442SOL    HW2 7326   2.518   0.980   2.101
 2443SOL     OW 7327   3.545   0.099   3.359
 2443SOL    HW1 7328   3.488   0.144   3.291
 2443SOL    HW2 7329   3.531   0.142   3.448
 2444SOL     OW 7330   1.958   0.625   2.429
 2444SOL    HW1 7331   1.931   0.537   2.471
 2444SOL    HW2 7332   1.961   0.695   2.500
 2445SOL     OW 7333   3.738   1.737   2.204
 2445SOL    HW1 7334   3.787   1.713   2.287
 2445SOL    HW2 7335   3.754   1.834   2.183
 2446SOL     OW 7336   1.847   1.613   1.968
 2446SOL    HW1 7337   1.847   1.516   1.991
 2446SOL    HW2 7338   1.862   1.666   2.051
 2447SOL     OW 7339   3.530   0.924   2.503
 2447SOL    HW1 7340   3.610   0.877   2.464
 2447SOL    HW2 7341   3.502   0.997   2.441
 2448SOL     OW 7342   3.511   1.153   2.338
 2448SOL    HW1 7343   3.596   1.131   2.289
 2448SOL    HW2 7344   3.533   1.191   2.427
 2449SOL     OW 7345   1.996   0.731   3.453
 2449SOL    HW1 7346   2.096   0.728   3.445
 2449SOL    HW2 7347   1.964   0.824   3.439
 2450SOL     OW 7348   2.454   1.387   2.579
 2450SOL    HW1 7349   2.402   1.303   2.593
 2450SOL    HW2 7350   2.440   1.420   2.486
 2451SOL     OW 7351   3.160   1.234   3.307
 2451SOL    HW1 7352   3.170   1.171   3.230
 2451SOL    HW2 7353   3.233   1.215   3.374
 2452SOL     OW 7354   2.660   0.031   2.444
 2452SOL    HW1 7355   2.717   0.101   2.399
 2452SOL    HW2 7356   2.565   0.042   2.414
 2453SOL     OW 7357   2.055   0.965   3.126
 2453SOL    HW1 7358   2.138   0.917   3.097
 2453SOL    HW2 7359   1.975   0.917   3.090
 2454SOL     OW 7360   3.437   0.966   2.054
 2454SOL    HW1 7361   3.354   0.925   2.091
 2454SOL    HW2 7362   3.470   1.037   2.116
 2455SOL     OW 7363   3.073   1.815   3.485
 2455SOL    HW1 7364   3.040   1.868   3.406
 2455SOL    HW2 7365   3.095   1.722   3.455
 2456SOL     OW 7366   2.156   0.212   3.694
 2456SOL    HW1 7367   2.223   0.287   3.694
 2456SOL    HW2 7368   2.064   0.250   3.707
 2457SOL     OW 7369   3.332   1.409   2.795
 2457SOL    HW1 7370   3.266   1.426   2.868
 2457SOL    HW2 7371   3.342   1.311   2.780
 2458SOL     OW 7372   3.508   1.749   2.451
 2458SOL    HW1 7373   3.466   1.732   2.361
 2458SOL    HW2 7374   3.500   1.666   2.507
 2459SOL     OW 7375   2.470   0.697   2.138
 2459SOL    HW1 7376   2.475   0.783   2.087
 2459SOL    HW2 7377   2.403   0.706   2.212
 2460SOL     OW 7378   3.176   0.359   2.807
 2460SOL    HW1 7379   3.078   0.338   2.815
 2460SOL    HW2 7380   3.227   0.300   2.870
 2461SOL     OW 7381   3.452   1.669   2.190
 2461SOL    HW1 7382   3.549   1.689   2.203
 2461SOL    HW2 7383   3.433   1.658   2.093
 2462SOL     OW 7384   2.665   0.624   3.326
 2462SOL    HW1 7385   2.632   0.588   3.413
 2462SOL    HW2 7386   2.632   0.566   3.252
 2463SOL     OW 7387   3.253   0.530   3.554
 2463SOL    HW1 7388   3.235   0.557   3.649
 2463SOL    HW2 7389   3.325   0.461   3.553
 2464SOL     OW 7390   2.839   0.877   3.430
 2464SOL    HW1 7391   2.903   0.810   3.392
 2464SOL    HW2 7392   2.785   0.917   3.356
 2465SOL     OW 7393   2.865   0.409   3.088
 2465SOL    HW1 7394   2.778   0.424   3.134
 2465SOL    HW2 7395   2.853   0.340   3.017
 2466SOL     OW 7396   2.921   0.694   2.216
 2466SOL    HW1 7397   2.933   0.707   2.315
 2466SOL    HW2 7398   2.838   0.642   2.200
 2467SOL     OW 7399   1.962   0.815   2.622
 2467SOL    HW1 7400   2.040   0.792   2.681
 2467SOL    HW2 7401   1.903   0.881   2.668
 2468SOL     OW 7402   2.002   1.819   3.434
 2468SOL    HW1 7403   2.008   1.809   3.533
 2468SOL    HW2 7404   1.937   1.892   3.411
 2469SOL     OW 7405   2.735   0.360   2.000
 2469SOL    HW1 7406   2.797   0.401   1.933
 2469SOL    HW2 7407   2.783   0.290   2.052
 2470SOL     OW 7408   3.582   0.600   3.701
 2470SOL    HW1 7409   3.527   0.679   3.678
 2470SOL    HW2 7410   3.594   0.542   3.620
 2471SOL     OW 7411   3.235   1.164   2.420
 2471SOL    HW1 7412   3.318   1.151   2.366
 2471SOL    HW2 7413   3.165   1.209   2.364
 2472SOL     OW 7414   2.406   0.217   2.753
 2472SOL    HW1 7415   2.418   0.217   2.852
 2472SOL    HW2 7416   2.408   0.311   2.719
 2473SOL     OW 7417   2.886   1.484   2.314
 2473SOL    HW1 7418   2.820   1.540   2.264
 2473SOL    HW2 7419   2.923   1.536   2.391
 2474SOL     OW 7420   2.208   1.795   2.711
 2474SOL    HW1 7421   2.265   1.714   2.722
 2474SOL    HW2 7422   2.260   1.876   2.736
 2475SOL     OW 7423   3.671   1.033   2.761
 2475SOL    HW1 7424   3.640   1.084   2.681
 2475SOL    HW2 7425   3.605   1.043   2.835
 2476SOL     OW 7426   3.121   1.556   3.387
 2476SOL    HW1 7427   3.140   1.462   3.414
 2476SOL    HW2 7428   3.023   1.566   3.369
 2477SOL     OW 7429   2.170   0.973   2.082
 2477SOL    HW1 7430   2.270   0.972   2.092
 2477SOL    HW2 7431   2.137   0.879   2.070
 2478SOL     OW 7432   3.319   0.749   2.601
 2478SOL    HW1 7433   3.317   0.690   2.681
 2478SOL    HW2 7434   3.412   0.785   2.588
 2479SOL     OW 7435   2.311   1.287   3.633
 2479SOL    HW1 7436   2.292   1.296   3.535
 2479SOL    HW2 7437   2.226   1.267   3.681
 2480SOL     OW 7438   3.036   1.757   2.086
 2480SOL    HW1 7439   2.947   1.731   2.123
 2480SOL    HW2 7440   3.054   1.706   2.001
 2481SOL     OW 7441   2.075   0.306   3.384
 2481SOL    HW1 7442   1.998   0.332   3.326
 2481SOL    HW2 7443   2.041   0.264   3.468
 2482SOL     OW 7444   3.448   1.369   1.992
 2482SOL    HW1 7445   3.442   1.463   1.961
 2482SOL    HW2 7446   3.383   1.312   1.941
 2483SOL     OW 7447   2.332   1.724   2.199
 2483SOL    HW1 7448   2.371   1.795   2.257
 2483SOL    HW2 7449   2.402   1.691   2.135
 2484SOL     OW 7450   3.232   0.103   2.268
 2484SOL    HW1 7451   3.231   0.116   2.168
 2484SOL    HW2 7452   3.321   0.131   2.304
 2485SOL     OW 7453   2.135   1.813   3.051
 2485SOL    HW1 7454   2.150   1.729   3.102
 2485SOL    HW2 7455   2.109   1.791   2.957
 2486SOL     OW 7456   2.802   1.719   2.761
 2486SOL    HW1 7457   2.855   1.657   2.819
 2486SOL    HW2 7458   2.757   1.668   2.688
 2487SOL     OW 7459   2.247   0.687   2.325
 2487SOL    HW1 7460   2.256   0.588   2.338
 2487SOL    HW2 7461   2.152   0.714   2.340
 2488SOL     OW 7462   3.392   0.231   3.619
 2488SOL    HW1 7463   3.386   0.271   3.710
 2488SOL    HW2 7464   3.321   0.162   3.608
 2489SOL     OW 7465   2.477   0.109   1.930
 2489SOL    HW1 7466   2.574   0.085   1.926
 2489SOL    HW2 7467   2.428   0.063   1.855
 2490SOL     OW 7468   2.630   0.269   3.622
 2490SOL    HW1 7469   2.717   0.220   3.631
 2490SOL    HW2 7470   2.576   0.255   3.705
 2491SOL     OW 7471   2.771   1.537   3.049
 2491SOL    HW1 7472   2.727   1.495   2.970
 2491SOL    HW2 7473   2.843   1.477   3.084
 2492SOL     OW 7474   3.202   0.597   3.307
 2492SOL    HW1 7475   3.232   0.579   3.400
 2492SOL    HW2 7476   3.238   0.686   3.277
 2493SOL     OW 7477   2.640   1.391   2.780
 2493SOL    HW1 7478   2.725   1.424   2.740
 2493SOL    HW2 7479   2.576   1.367   2.707
 2494SOL     OW 7480   2.793   0.504   2.755
 2494SOL    HW1 7481   2.743   0.479   2.672
 2494SOL    HW2 7482   2.818   0.420   2.805
 2495SOL     OW 7483   2.422   0.077   2.332
 2495SOL    HW1 7484   2.341   0.071   2.390
 2495SOL    HW2 7485   2.418   0.160   2.276
 2496SOL     OW 7486   3.271   1.192   1.875
 2496SOL    HW1 7487   3.303   1.102   1.904
 2496SOL    HW2 7488   3.198   1.223   1.936
 2497SOL     OW 7489   2.157   0.054   2.060
 2497SOL    HW1 7490   2.200   0.101   1.984
 2497SOL    HW2 7491   2.226   0.009   2.115
 2498SOL     OW 7492   2.840   0.287   2.345
 2498SOL    HW1 7493   2.792   0.243   2.269
 2498SOL    HW2 7494   2.937   0.295   2.322
 2499SOL     OW 7495   2.951   0.673   3.308
 2499SOL    HW1 7496   2.878   0.605   3.320
 2499SOL    HW2 7497   3.039   0.627   3.304
 2500SOL     OW 7498   3.066   1.556   2.656
 2500SOL    HW1 7499   3.104   1.585   2.568
 2500SOL    HW2 7500   3.136   1.564   2.727
 2501SOL     OW 7501   2.314   1.159   2.615
 2501SOL    HW1 7502   2.234   1.133   2.669
 2501SOL    HW2 7503   2.291   1.158   2.518
 2502SOL     OW 7504   3.163   1.796   2.441
 2502SOL    HW1 7505   3.185   1.864   2.371
 2502SOL    HW2 7506   3.111   1.840   2.514
 2503SOL     OW 7507   2.885   0.550   1.807
 2503SOL    HW1 7508   2.824   0.628   1.801
 2503SOL    HW2 7509   2.947   0.562   1.885
 2504SOL     OW 7510   1.940   0.554   3.268
 2504SOL    HW1 7511   2.025   0.539   3.218
 2504SOL    HW2 7512   1.952   0.628   3.334
 2505SOL     OW 7513   2.411   0.269   3.064
 2505SOL    HW1 7514   2.462   0.221   3.134
 2505SOL    HW2 7515   2.314   0.245   3.070
 2506SOL     OW 7516   2.702   0.423   2.516
 2506SOL    HW1 7517   2.654   0.480   2.450
 2506SOL    HW2 7518   2.767   0.364   2.467
 2507SOL     OW 7519   2.859   0.043   2.613
 2507SOL    HW1 7520   2.781   0.044   2.551
 2507SOL    HW2 7521   2.866   5.954   2.658
 2508SOL     OW 7522   3.312   1.126   2.753
 2508SOL    HW1 7523   3.223   1.086   2.776
 2508SOL    HW2 7524   3.334   1.106   2.657
 2509SOL     OW 7525   3.341   0.591   2.820
 2509SOL    HW1 7526   3.293   0.505   2.806
 2509SOL    HW2 7527   3.390   0.588   2.907
 2510SOL     OW 7528   3.738   0.766   2.219
 2510SOL    HW1 7529   3.778   0.728   2.302
 2510SOL    HW2 7530   3.680   0.698   2.176
 2511SOL     OW 7531   2.351   1.410   2.054
 2511SOL    HW1 7532   2.262   1.385   2.092
 2511SOL    HW2 7533   2.353   1.388   1.956
 2512SOL     OW 7534   3.577   1.290   2.573
 2512SOL    HW1 7535   3.667   1.307   2.532
 2512SOL    HW2 7536   3.520   1.371   2.563
 2513SOL     OW 7537   3.234   0.584   1.950
 2513SOL    HW1 7538   3.168   0.534   2.006
 2513SOL    HW2 7539   3.327   0.553   1.971
 2514SOL     OW 7540   2.426   0.270   2.156
 2514SOL    HW1 7541   2.437   0.213   2.074
 2514SOL    HW2 7542   2.391   0.360   2.129
 2515SOL     OW 7543   3.609   1.276   3.436
 2515SOL    HW1 7544   3.684   1.211   3.449
 2515SOL    HW2 7545   3.644   1.369   3.446
 2516SOL     OW 7546   2.917   1.348   3.224
 2516SOL    HW1 7547   2.826   1.327   3.260
 2516SOL    HW2 7548   2.987   1.304   3.282
 2517SOL     OW 7549   3.467   1.667   3.517
 2517SOL    HW1 7550   3.455   1.683   3.419
 2517SOL    HW2 7551   3.548   1.611   3.533
 2518SOL     OW 7552   2.905   1.177   2.987
 2518SOL    HW1 7553   2.914   1.239   3.065
 2518SOL    HW2 7554   2.900   1.231   2.902
 2519SOL     OW 7555   3.499   1.094   2.954
 2519SOL    HW1 7556   3.492   1.173   3.015
 2519SOL    HW2 7557   3.427   1.099   2.885
 2520SOL     OW 7558   2.798   0.156   3.227
 2520SOL    HW1 7559   2.823   0.081   3.166
 2520SOL    HW2 7560   2.871   0.170   3.294
 2521SOL     OW 7561   2.822   1.093   3.585
 2521SOL    HW1 7562   2.724   1.101   3.600
 2521SOL    HW2 7563   2.840   1.019   3.519
 2522SOL     OW 7564   2.583   1.071   2.268
 2522SOL    HW1 7565   2.568   1.052   2.365
 2522SOL    HW2 7566   2.662   1.019   2.235
 2523SOL     OW 7567   2.277   0.803   3.116
 2523SOL    HW1 7568   2.352   0.814   3.182
 2523SOL    HW2 7569   2.234   0.715   3.130
 2524SOL     OW 7570   3.139   0.398   3.152
 2524SOL    HW1 7571   3.166   0.479   3.204
 2524SOL    HW2 7572   3.052   0.416   3.106
 2525SOL     OW 7573   1.928   1.545   3.211
 2525SOL    HW1 7574   1.876   1.610   3.155
 2525SOL    HW2 7575   2.024   1.574   3.213
 2526SOL     OW 7576   2.250   1.141   2.351
 2526SOL    HW1 7577   2.236   1.211   2.282
 2526SOL    HW2 7578   2.271   1.054   2.307
 2527SOL     OW 7579   2.441   0.529   2.726
 2527SOL    HW1 7580   2.444   0.593   2.649
 2527SOL    HW2 7581   2.508   0.557   2.795
 2528SOL     OW 7582   3.108   1.360   2.229
 2528SOL    HW1 7583   3.166   1.422   2.282
 2528SOL    HW2 7584   3.012   1.387   2.240
 2529SOL     OW 7585   3.171   1.450   3.007
 2529SOL    HW1 7586   3.227   1.476   3.087
 2529SOL    HW2 7587   3.108   1.377   3.033
 2530SOL     OW 7588   3.477   0.644   2.374
 2530SOL    HW1 7589   3.398   0.693   2.412
 2530SOL    HW2 7590   3.492   0.672   2.279
 2531SOL     OW 7591   2.200   1.547   3.144
 2531SOL    HW1 7592   2.204   1.497   3.058
 2531SOL    HW2 7593   2.293   1.567   3.175
 2532SOL     OW 7594   2.258   0.725   3.443
 2532SOL    HW1 7595   2.307   0.782   3.377
 2532SOL    HW2 7596   2.321   0.659   3.484
 2533SOL     OW 7597   3.482   0.819   3.540
 2533SOL    HW1 7598   3.384   0.836   3.531
 2533SOL    HW2 7599   3.531   0.859   3.463
 2534SOL     OW 7600   2.867   0.137   3.623
 2534SOL    HW1 7601   2.940   0.186   3.574
 2534SOL    HW2 7602   2.834   0.062   3.566
 2535SOL     OW 7603   2.321   0.000   3.607
 2535SOL    HW1 7604   2.338   0.003   3.509
 2535SOL    HW2 7605   2.287   0.089   3.638
 2536SOL     OW 7606   2.413   0.853   2.878
 2536SOL    HW1 7607   2.460   0.941   2.884
 2536SOL    HW2 7608   2.367   0.833   2.964
 2537SOL     OW 7609   3.199   0.838   2.919
 2537SOL    HW1 7610   3.111   0.846   2.871
 2537SOL    HW2 7611   3.244   0.753   2.891
 2538SOL     OW 7612   3.060   0.468   2.117
 2538SOL    HW1 7613   3.093   0.408   2.190
 2538SOL    HW2 7614   3.023   0.552   2.157
 2539SOL     OW 7615   2.151   0.194   3.136
 2539SOL    HW1 7616   2.129   0.205   3.233
 2539SOL    HW2 7617   2.155   0.097   3.114
 2540SOL     OW 7618   1.909   1.275   3.162
 2540SOL    HW1 7619   1.969   1.227   3.227
 2540SOL    HW2 7620   1.914   1.374   3.180
 2541SOL     OW 7621   2.632   0.648   2.915
 2541SOL    HW1 7622   2.701   0.604   2.858
 2541SOL    HW2 7623   2.602   0.733   2.871
 2542SOL     OW 7624   3.643   0.964   3.692
 2542SOL    HW1 7625   3.595   0.897   3.636
 2542SOL    HW2 7626   3.595   0.976   3.779
 2543SOL     OW 7627   2.204   0.050   2.480
 2543SOL    HW1 7628   2.170   0.139   2.510
 2543SOL    HW2 7629   2.139   5.979   2.507
 2544SOL     OW 7630   3.429   0.398   2.249
 2544SOL    HW1 7631   3.481   0.320   2.282
 2544SOL    HW2 7632   3.429   0.470   2.319
 2545SOL     OW 7633   2.913   0.759   2.813
 2545SOL    HW1 7634   2.911   0.765   2.912
 2545SOL    HW2 7635   2.862   0.678   2.783
 2546SOL     OW 7636   2.857   1.586   3.582
 2546SOL    HW1 7637   2.813   1.618   3.498
 2546SOL    HW2 7638   2.891   1.493   3.568
 2547SOL     OW 7639   3.708   1.525   3.490
 2547SOL    HW1 7640   3.733   1.553   3.398
 2547SOL    HW2 7641   3.787   1.536   3.551
 2548SOL     OW 7642   2.214   0.943   3.633
 2548SOL    HW1 7643   2.254   0.935   3.724
 2548SOL    HW2 7644   2.232   0.860   3.581
 2549SOL     OW 7645   3.341   0.316   2.014
 2549SOL    HW1 7646   3.289   0.230   2.013
 2549SOL    HW2 7647   3.362   0.342   2.108
 2550SOL     OW 7648   3.157   0.850   1.911
 2550SOL    HW1 7649   3.173   0.752   1.914
 2550SOL    HW2 7650   3.183   0.886   1.821
 2551SOL     OW 7651   2.927   1.356   2.768
 2551SOL    HW1 7652   2.916   1.283   2.701
 2551SOL    HW2 7653   2.974   1.433   2.727
 2552SOL     OW 7654   2.159   0.773   2.816
 2552SOL    HW1 7655   2.251   0.806   2.797
 2552SOL    HW2 7656   2.163   0.677   2.846
 2553SOL     OW 7657   2.203   0.511   2.864
 2553SOL    HW1 7658   2.165   0.418   2.861
 2553SOL    HW2 7659   2.279   0.517   2.800
 2554SOL     OW 7660   3.047   0.367   3.561
 2554SOL    HW1 7661   2.971   0.421   3.595
 2554SOL    HW2 7662   3.126   0.427   3.544
 2555SOL     OW 7663   3.026   0.199   3.366
 2555SOL    HW1 7664   3.031   0.270   3.436
 2555SOL    HW2 7665   3.045   0.239   3.276
 2556SOL     OW 7666   1.838   1.342   2.078
 2556SOL    HW1 7667   1.742   1.349   2.053
 2556SOL    HW2 7668   1.859   1.248   2.105
 2557SOL     OW 7669   1.960   1.777   2.811
 2557SOL    HW1 7670   1.912   1.700   2.768
 2557SOL    HW2 7671   2.047   1.792   2.763
 2558SOL     OW 7672   2.366   1.591   2.771
 2558SOL    HW1 7673   2.445   1.649   2.787
 2558SOL    HW2 7674   2.391   1.516   2.709
 2559SOL     OW 7675   2.852   0.773   3.078
 2559SOL    HW1 7676   2.895   0.770   3.168
 2559SOL    HW2 7677   2.778   0.705   3.074
 2560SOL     OW 7678   1.875   0.524   2.977
 2560SOL    HW1 7679   1.958   0.520   2.922
 2560SOL    HW2 7680   1.899   0.517   3.074
 2561SOL     OW 7681   2.082   0.496   3.583
 2561SOL    HW1 7682   2.100   0.442   3.500
 2561SOL    HW2 7683   2.050   0.587   3.556
 2562SOL     OW 7684   3.231   0.926   3.513
 2562SOL    HW1 7685   3.263   1.021   3.515
 2562SOL    HW2 7686   3.227   0.894   3.419
 2563SOL     OW 7687   2.695   0.564   2.170
 2563SOL    HW1 7688   2.695   0.480   2.116
 2563SOL    HW2 7689   2.604   0.606   2.165
 2564SOL     OW 7690   3.485   0.548   3.053
 2564SOL    HW1 7691   3.483   0.491   3.135
 2564SOL    HW2 7692   3.578   0.553   3.017
 2565SOL     OW 7693   2.098   1.530   3.592
 2565SOL    HW1 7694   2.091   1.603   3.660
 2565SOL    HW2 7695   2.090   1.442   3.637
 2566SOL     OW 7696   2.586   0.477   3.115
 2566SOL    HW1 7697   2.513   0.410   3.104
 2566SOL    HW2 7698   2.585   0.541   3.038
 2567SOL     OW 7699   2.764   1.662   3.344
 2567SOL    HW1 7700   2.771   1.615   3.257
 2567SOL    HW2 7701   2.753   1.760   3.329
 2568SOL     OW 7702   2.351   0.491   2.020
 2568SOL    HW1 7703   2.405   0.564   2.061
 2568SOL    HW2 7704   2.257   0.522   2.006
 2569SOL     OW 7705   2.060   1.136   3.326
 2569SOL    HW1 7706   2.030   1.095   3.412
 2569SOL    HW2 7707   2.054   1.068   3.253
 2570SOL     OW 7708   3.163   1.053   3.094
 2570SOL    HW1 7709   3.203   0.997   3.021
 2570SOL    HW2 7710   3.065   1.063   3.078
 2571SOL     OW 7711   3.185   0.886   2.170
 2571SOL    HW1 7712   3.102   0.856   2.217
 2571SOL    HW2 7713   3.179   0.864   2.073
 2572SOL     OW 7714   3.677   1.695   3.028
 2572SOL    HW1 7715   3.735   1.727   2.953
 2572SOL    HW2 7716   3.622   1.618   2.997
 2573SOL     OW 7717   3.082   1.711   3.028
 2573SOL    HW1 7718   3.145   1.776   2.985
 2573SOL    HW2 7719   3.112   1.618   3.009
 2574SOL     OW 7720   1.956   1.282   2.896
 2574SOL    HW1 7721   1.947   1.272   2.996
 2574SOL    HW2 7722   1.879   1.235   2.852
 2575SOL     OW 7723   2.571   1.671   3.599
 2575SOL    HW1 7724   2.475   1.696   3.589
 2575SOL    HW2 7725   2.618   1.682   3.511
 2576SOL     OW 7726   3.513   0.148   2.343
 2576SOL    HW1 7727   3.610   0.138   2.324
 2576SOL    HW2 7728   3.491   0.105   2.430
 2577SOL     OW 7729   3.228   1.560   2.348
 2577SOL    HW1 7730   3.300   1.570   2.279
 2577SOL    HW2 7731   3.197   1.651   2.377
 2578SOL     OW 7732   2.010   1.802   3.702
 2578SOL    HW1 7733   1.932   1.741   3.719
 2578SOL    HW2 7734   2.041   1.842   3.788
 2579SOL     OW 7735   3.135   0.919   2.509
 2579SOL    HW1 7736   3.206   0.853   2.535
 2579SOL    HW2 7737   3.178   1.006   2.483
 2580SOL     OW 7738   2.646   1.251   3.262
 2580SOL    HW1 7739   2.621   1.309   3.339
 2580SOL    HW2 7740   2.575   1.258   3.191
 2581SOL     OW 7741   2.521   1.618   2.029
 2581SOL    HW1 7742   2.548   1.629   1.934
 2581SOL    HW2 7743   2.463   1.537   2.039
 2582SOL     OW 7744   3.501   1.723   3.239
 2582SOL    HW1 7745   3.566   1.725   3.163
 2582SOL    HW2 7746   3.482   1.816   3.269
 2583SOL     OW 7747   3.734   0.137   2.817
 2583SOL    HW1 7748   3.745   0.062   2.753
 2583SOL    HW2 7749   3.643   0.177   2.806
 2584SOL     OW 7750   2.122   0.286   2.563
 2584SOL    HW1 7751   2.032   0.312   2.527
 2584SOL    HW2 7752   2.123   0.297   2.662
 2585SOL     OW 7753   3.101   1.601   1.877
 2585SOL    HW1 7754   3.059   1.515   1.907
 2585SOL    HW2 7755   3.057   1.632   1.793
 2586SOL     OW 7756   2.709   0.997   3.227
 2586SOL    HW1 7757   2.754   0.985   3.139
 2586SOL    HW2 7758   2.683   1.093   3.238
 2587SOL     OW 7759   2.766   0.923   2.136
 2587SOL    HW1 7760   2.841   0.967   2.087
 2587SOL    HW2 7761   2.778   0.824   2.135
 2588SOL     OW 7762   3.377   1.642   1.935
 2588SOL    HW1 7763   3.279   1.633   1.950
 2588SOL    HW2 7764   3.395   1.652   1.837
 2589SOL     OW 7765   2.229   1.322   3.382
 2589SOL    HW1 7766   2.219   1.390   3.309
 2589SOL    HW2 7767   2.163   1.248   3.367
 2590SOL     OW 7768   3.487   1.290   3.166
 2590SOL    HW1 7769   3.542   1.274   3.247
 2590SOL    HW2 7770   3.413   1.354   3.188
 2591SOL     OW 7771   2.862   1.143   2.606
 2591SOL    HW1 7772   2.810   1.068   2.646
 2591SOL    HW2 7773   2.919   1.109   2.531
 2592SOL     OW 7774   2.927   0.193   2.831
 2592SOL    HW1 7775   2.915   0.154   2.739
 2592SOL    HW2 7776   2.862   0.151   2.894
 2593SOL     OW 7777   2.494   1.479   2.306
 2593SOL    HW1 7778   2.538   1.415   2.243
 2593SOL    HW2 7779   2.412   1.517   2.264
 2594SOL     OW 7780   3.586   0.385   3.258
 2594SOL    HW1 7781   3.650   0.461   3.261
 2594SOL    HW2 7782   3.620   0.314   3.196
 2595SOL     OW 7783   2.101   1.356   2.148
 2595SOL    HW1 7784   2.011   1.382   2.113
 2595SOL    HW2 7785   2.111   1.389   2.242
 2596SOL     OW 7786   1.984   1.067   3.569
 2596SOL    HW1 7787   1.902   1.028   3.611
 2596SOL    HW2 7788   2.065   1.016   3.599
 2597SOL     OW 7789   2.556   0.221   3.317
 2597SOL    HW1 7790   2.643   0.194   3.275
 2597SOL    HW2 7791   2.574   0.255   3.409
 2598SOL     OW 7792   1.921   0.340   1.887
 2598SOL    HW1 7793   1.822   0.349   1.896
 2598SOL    HW2 7794   1.958   0.422   1.843
 2599SOL     OW 7795   3.289   0.845   3.251
 2599SOL    HW1 7796   3.225   0.908   3.206
 2599SOL    HW2 7797   3.380   0.855   3.210
 2600SOL     OW 7798   1.952   0.177   2.212
 2600SOL    HW1 7799   1.881   0.213   2.152
 2600SOL    HW2 7800   2.023   0.134   2.157
 2601SOL     OW 7801   3.052   1.345   1.970
 2601SOL    HW1 7802   2.993   1.265   1.967
 2601SOL    HW2 7803   3.087   1.358   2.063
 2602SOL     OW 7804   2.479   0.816   3.302
 2602SOL    HW1 7805   2.527   0.902   3.285
 2602SOL    HW2 7806   2.546   0.744   3.323
 2603SOL     OW 7807   3.352   1.789   2.862
 2603SOL    HW1 7808   3.333   1.866   2.800
 2603SOL    HW2 7809   3.447   1.761   2.852
 2604SOL     OW 7810   2.583   0.550   3.566
 2604SOL    HW1 7811   2.593   0.618   3.639
 2604SOL    HW2 7812   2.614   0.461   3.599
 2605SOL     OW 7813   3.344   1.191   3.487
 2605SOL    HW1 7814   3.314   1.206   3.581
 2605SOL    HW2 7815   3.433   1.235   3.472
 2606SOL     OW 7816   2.238   1.716   3.404
 2606SOL    HW1 7817   2.154   1.770   3.402
 2606SOL    HW2 7818   2.216   1.623   3.434
 2607SOL     OW 7819   3.524   0.863   3.100
 2607SOL    HW1 7820   3.515   0.781   3.044
 2607SOL    HW2 7821   3.524   0.944   3.040
 2608SOL     OW 7822   3.096   0.316   2.334
 2608SOL    HW1 7823   3.140   0.226   2.339
 2608SOL    HW2 7824   3.112   0.366   2.418
 2609SOL     OW 7825   2.415   0.733   2.537
 2609SOL    HW1 7826   2.461   0.822   2.531
 2609SOL    HW2 7827   2.351   0.724   2.460
 2610SOL     OW 7828   3.605   0.383   3.529
 2610SOL    HW1 7829   3.598   0.385   3.429
 2610SOL    HW2 7830   3.537   0.320   3.566
 2611SOL     OW 7831   3.618   0.953   3.335
 2611SOL    HW1 7832   3.614   1.051   3.316
 2611SOL    HW2 7833   3.596   0.902   3.251
 2612SOL     OW 7834   2.709   1.402   1.869
 2612SOL    HW1 7835   2.713   1.395   1.969
 2612SOL    HW2 7836   2.765   1.478   1.839
 2613SOL     OW 7837   2.540   1.801   2.806
 2613SOL    HW1 7838   2.498   1.892   2.800
 2613SOL    HW2 7839   2.637   1.807   2.782
 2614SOL     OW 7840   2.729   0.950   2.749
 2614SOL    HW1 7841   2.802   0.887   2.775
 2614SOL    HW2 7842   2.704   1.006   2.828
 2615SOL     OW 7843   2.945   1.028   1.951
 2615SOL    HW1 7844   2.908   1.055   1.862
 2615SOL    HW2 7845   3.014   0.957   1.938
 2616SOL     OW 7846   3.677   1.561   2.723
 2616SOL    HW1 7847   3.598   1.546   2.665
 2616SOL    HW2 7848   3.673   1.501   2.803
 2617SOL     OW 7849   2.057   1.264   3.744
 2617SOL    HW1 7850   2.020   1.181   3.702
 2617SOL    HW2 7851   2.042   1.261   3.843
 2618SOL     OW 7852   1.984   1.221   2.489
 2618SOL    HW1 7853   1.989   1.188   2.583
 2618SOL    HW2 7854   2.057   1.179   2.435
 2619SOL     OW 7855   2.582   1.395   3.472
 2619SOL    HW1 7856   2.492   1.368   3.508
 2619SOL    HW2 7857   2.620   1.467   3.529
 2620SOL     OW 7858   3.676   0.197   3.092
 2620SOL    HW1 7859   3.674   0.110   3.141
 2620SOL    HW2 7860   3.705   0.181   2.997
 2621SOL     OW 7861   2.258   0.426   2.376
 2621SOL    HW1 7862   2.307   0.354   2.326
 2621SOL    HW2 7863   2.206   0.385   2.451
 2622SOL     OW 7864   3.546   1.463   2.965
 2622SOL    HW1 7865   3.458   1.461   2.917
 2622SOL    HW2 7866   3.546   1.395   3.038
 2623SOL     OW 7867   2.174   0.556   3.127
 2623SOL    HW1 7868   2.235   0.507   3.190
 2623SOL    HW2 7869   2.196   0.530   3.033
 2624SOL     OW 7870   2.684   1.574   2.562
 2624SOL    HW1 7871   2.705   1.592   2.466
 2624SOL    HW2 7872   2.592   1.536   2.570
 2625SOL     OW 7873   3.348   0.264   3.013
 2625SOL    HW1 7874   3.389   0.196   3.073
 2625SOL    HW2 7875   3.318   0.343   3.068
 2626SOL     OW 7876   2.861   5.946   3.054
 2626SOL    HW1 7877   2.794   5.952   2.980
 2626SOL    HW2 7878   2.953   5.939   3.016
 2627SOL     OW 7879   2.685   1.301   2.188
 2627SOL    HW1 7880   2.627   1.223   2.213
 2627SOL    HW2 7881   2.737   1.330   2.268
 2628SOL     OW 7882   2.501   1.557   3.136
 2628SOL    HW1 7883   2.488   1.636   3.197
 2628SOL    HW2 7884   2.597   1.550   3.110
 2629SOL     OW 7885   3.222   0.067   1.998
 2629SOL    HW1 7886   3.256   0.007   1.926
 2629SOL    HW2 7887   3.152   0.020   2.051
 2630SOL     OW 7888   3.137   0.467   2.556
 2630SOL    HW1 7889   3.077   0.548   2.556
 2630SOL    HW2 7890   3.150   0.436   2.651
 2631SOL     OW 7891   3.493   0.242   2.778
 2631SOL    HW1 7892   3.444   0.251   2.865
 2631SOL    HW2 7893   3.457   0.310   2.713
 2632SOL     OW 7894   1.888   1.086   2.149
 2632SOL    HW1 7895   1.988   1.084   2.145
 2632SOL    HW2 7896   1.853   0.992   2.145
 2633SOL     OW 7897   2.754   1.654   2.153
 2633SOL    HW1 7898   2.667   1.631   2.109
 2633SOL    HW2 7899   2.739   1.725   2.221
 2634SOL     OW 7900   2.105   0.665   3.864
 2634SOL    HW1 7901   2.018   0.664   3.914
 2634SOL    HW2 7902   2.093   0.618   3.777
 2635SOL     OW 7903   2.097   0.272   4.703
 2635SOL    HW1 7904   2.150   0.208   4.758
 2635SOL    HW2 7905   2.002   0.240   4.697
 2636SOL     OW 7906   1.861   0.355   4.373
 2636SOL    HW1 7907   1.768   0.368   4.408
 2636SOL    HW2 7908   1.857   0.318   4.280
 2637SOL     OW 7909   2.388   1.274   4.904
 2637SOL    HW1 7910   2.316   1.290   4.836
 2637SOL    HW2 7911   2.405   1.358   4.955
 2638SOL     OW 7912   3.425   1.515   4.438
 2638SOL    HW1 7913   3.386   1.478   4.521
 2638SOL    HW2 7914   3.353   1.529   4.370
 2639SOL     OW 7915   2.978   0.688   4.371
 2639SOL    HW1 7916   3.026   0.774   4.386
 2639SOL    HW2 7917   2.914   0.672   4.447
 2640SOL     OW 7918   3.582   0.577   3.975
 2640SOL    HW1 7919   3.593   0.577   3.876
 2640SOL    HW2 7920   3.521   0.502   4.002
 2641SOL     OW 7921   2.602   1.157   4.776
 2641SOL    HW1 7922   2.517   1.188   4.818
 2641SOL    HW2 7923   2.648   1.234   4.733
 2642SOL     OW 7924   2.684   0.816   5.534
 2642SOL    HW1 7925   2.668   0.880   5.609
 2642SOL    HW2 7926   2.725   0.864   5.457
 2643SOL     OW 7927   2.535   0.984   4.420
 2643SOL    HW1 7928   2.603   0.976   4.493
 2643SOL    HW2 7929   2.464   1.050   4.448
 2644SOL     OW 7930   2.562   1.164   5.533
 2644SOL    HW1 7931   2.615   1.248   5.538
 2644SOL    HW2 7932   2.464   1.187   5.527
 2645SOL     OW 7933   2.206   1.433   4.760
 2645SOL    HW1 7934   2.114   1.419   4.724
 2645SOL    HW2 7935   2.252   1.506   4.709
 2646SOL     OW 7936   3.349   1.513   5.084
 2646SOL    HW1 7937   3.407   1.593   5.092
 2646SOL    HW2 7938   3.274   1.519   5.150
 2647SOL     OW 7939   2.320   0.431   5.181
 2647SOL    HW1 7940   2.392   0.363   5.168
 2647SOL    HW2 7941   2.236   0.386   5.210
 2648SOL     OW 7942   3.432   0.438   4.459
 2648SOL    HW1 7943   3.341   0.468   4.430
 2648SOL    HW2 7944   3.484   0.516   4.493
 2649SOL     OW 7945   2.095   1.708   4.224
 2649SOL    HW1 7946   2.131   1.797   4.254
 2649SOL    HW2 7947   2.142   1.679   4.141
 2650SOL     OW 7948   2.981   1.339   5.428
 2650SOL    HW1 7949   3.051   1.326   5.499
 2650SOL    HW2 7950   2.932   1.253   5.415
 2651SOL     OW 7951   2.125   1.429   4.267
 2651SOL    HW1 7952   2.092   1.523   4.277
 2651SOL    HW2 7953   2.059   1.367   4.310
 2652SOL     OW 7954   2.099   1.092   4.599
 2652SOL    HW1 7955   2.099   0.999   4.634
 2652SOL    HW2 7956   2.062   1.154   4.668
 2653SOL     OW 7957   2.496   1.770   5.184
 2653SOL    HW1 7958   2.401   1.748   5.206
 2653SOL    HW2 7959   2.512   1.867   5.201
 2654SOL     OW 7960   2.459   0.952   3.888
 2654SOL    HW1 7961   2.472   1.012   3.809
 2654SOL    HW2 7962   2.520   0.979   3.962
 2655SOL     OW 7963   3.537   0.101   5.217
 2655SOL    HW1 7964   3.481   0.147   5.149
 2655SOL    HW2 7965   3.530   0.149   5.305
 2656SOL     OW 7966   1.967   0.622   4.289
 2656SOL    HW1 7967   1.933   0.537   4.328
 2656SOL    HW2 7968   1.976   0.691   4.360
 2657SOL     OW 7969   3.736   1.735   4.066
 2657SOL    HW1 7970   3.787   1.711   4.149
 2657SOL    HW2 7971   3.747   1.832   4.047
 2658SOL     OW 7972   1.847   1.612   3.830
 2658SOL    HW1 7973   1.849   1.515   3.854
 2658SOL    HW2 7974   1.858   1.666   3.914
 2659SOL     OW 7975   3.530   0.922   4.369
 2659SOL    HW1 7976   3.607   0.872   4.330
 2659SOL    HW2 7977   3.503   0.996   4.306
 2660SOL     OW 7978   3.515   1.147   4.208
 2660SOL    HW1 7979   3.601   1.131   4.158
 2660SOL    HW2 7980   3.535   1.191   4.295
 2661SOL     OW 7981   1.999   0.728   5.310
 2661SOL    HW1 7982   2.098   0.739   5.307
 2661SOL    HW2 7983   1.956   0.819   5.308
 2662SOL     OW 7984   2.454   1.386   4.441
 2662SOL    HW1 7985   2.403   1.301   4.451
 2662SOL    HW2 7986   2.444   1.421   4.348
 2663SOL     OW 7987   3.146   1.231   5.175
 2663SOL    HW1 7988   3.165   1.171   5.098
 2663SOL    HW2 7989   3.206   1.208   5.252
 2664SOL     OW 7990   2.660   0.037   4.304
 2664SOL    HW1 7991   2.716   0.114   4.274
 2664SOL    HW2 7992   2.567   0.048   4.268
 2665SOL     OW 7993   2.038   0.966   4.995
 2665SOL    HW1 7994   2.120   0.917   4.967
 2665SOL    HW2 7995   1.958   0.927   4.948
 2666SOL     OW 7996   3.436   0.963   3.918
 2666SOL    HW1 7997   3.353   0.923   3.955
 2666SOL    HW2 7998   3.470   1.033   3.981
 2667SOL     OW 7999   3.074   1.809   5.342
 2667SOL    HW1 8000   3.033   1.868   5.273
 2667SOL    HW2 8001   3.091   1.718   5.303
 2668SOL     OW 8002   2.144   0.193   5.545
 2668SOL    HW1 8003   2.215   0.261   5.528
 2668SOL    HW2 8004   2.057   0.239   5.562
 2669SOL     OW 8005   3.330   1.411   4.654
 2669SOL    HW1 8006   3.271   1.427   4.733
 2669SOL    HW2 8007   3.338   1.313   4.638
 2670SOL     OW 8008   3.506   1.750   4.313
 2670SOL    HW1 8009   3.461   1.733   4.225
 2670SOL    HW2 8010   3.504   1.666   4.368
 2671SOL     OW 8011   2.469   0.702   4.005
 2671SOL    HW1 8012   2.477   0.786   3.952
 2671SOL    HW2 8013   2.399   0.714   4.076
 2672SOL     OW 8014   3.177   0.362   4.673
 2672SOL    HW1 8015   3.080   0.340   4.681
 2672SOL    HW2 8016   3.230   0.303   4.734
 2673SOL     OW 8017   3.451   1.671   4.054
 2673SOL    HW1 8018   3.548   1.692   4.067
 2673SOL    HW2 8019   3.432   1.659   3.956
 2674SOL     OW 8020   2.660   0.625   5.186
 2674SOL    HW1 8021   2.632   0.589   5.274
 2674SOL    HW2 8022   2.631   0.563   5.113
 2675SOL     OW 8023   3.260   0.516   5.414
 2675SOL    HW1 8024   3.251   0.549   5.508
 2675SOL    HW2 8025   3.322   0.438   5.411
 2676SOL     OW 8026   2.840   0.877   5.293
 2676SOL    HW1 8027   2.899   0.806   5.255
 2676SOL    HW2 8028   2.784   0.916   5.220
 2677SOL     OW 8029   2.870   0.423   4.940
 2677SOL    HW1 8030   2.782   0.430   4.986
 2677SOL    HW2 8031   2.866   0.350   4.871
 2678SOL     OW 8032   2.923   0.692   4.084
 2678SOL    HW1 8033   2.935   0.704   4.182
 2678SOL    HW2 8034   2.839   0.640   4.067
 2679SOL     OW 8035   1.963   0.815   4.485
 2679SOL    HW1 8036   2.036   0.789   4.548
 2679SOL    HW2 8037   1.901   0.879   4.530
 2680SOL     OW 8038   1.993   1.819   5.293
 2680SOL    HW1 8039   2.008   1.816   5.392
 2680SOL    HW2 8040   1.925   1.890   5.272
 2681SOL     OW 8041   2.744   0.374   3.866
 2681SOL    HW1 8042   2.802   0.403   3.790
 2681SOL    HW2 8043   2.783   0.293   3.908
 2682SOL     OW 8044   3.575   0.607   5.559
 2682SOL    HW1 8045   3.533   0.688   5.518
 2682SOL    HW2 8046   3.582   0.535   5.491
 2683SOL     OW 8047   3.239   1.162   4.283
 2683SOL    HW1 8048   3.321   1.148   4.227
 2683SOL    HW2 8049   3.168   1.207   4.229
 2684SOL     OW 8050   2.405   0.225   4.617
 2684SOL    HW1 8051   2.413   0.232   4.717
 2684SOL    HW2 8052   2.410   0.317   4.577
 2685SOL     OW 8053   2.888   1.485   4.173
 2685SOL    HW1 8054   2.822   1.541   4.123
 2685SOL    HW2 8055   2.920   1.536   4.253
 2686SOL     OW 8056   2.204   1.796   4.575
 2686SOL    HW1 8057   2.261   1.714   4.584
 2686SOL    HW2 8058   2.258   1.877   4.600
 2687SOL     OW 8059   3.673   1.054   4.628
 2687SOL    HW1 8060   3.635   1.095   4.545
 2687SOL    HW2 8061   3.603   1.055   4.700
 2688SOL     OW 8062   3.113   1.550   5.236
 2688SOL    HW1 8063   3.130   1.459   5.272
 2688SOL    HW2 8064   3.016   1.559   5.211
 2689SOL     OW 8065   2.172   0.967   3.943
 2689SOL    HW1 8066   2.271   0.964   3.948
 2689SOL    HW2 8067   2.135   0.875   3.932
 2690SOL     OW 8068   3.319   0.748   4.466
 2690SOL    HW1 8069   3.319   0.689   4.546
 2690SOL    HW2 8070   3.411   0.787   4.453
 2691SOL     OW 8071   2.307   1.281   5.499
 2691SOL    HW1 8072   2.292   1.291   5.400
 2691SOL    HW2 8073   2.219   1.277   5.546
 2692SOL     OW 8074   3.035   1.757   3.949
 2692SOL    HW1 8075   2.945   1.730   3.983
 2692SOL    HW2 8076   3.053   1.711   3.862
 2693SOL     OW 8077   2.074   0.299   5.234
 2693SOL    HW1 8078   2.000   0.336   5.178
 2693SOL    HW2 8079   2.036   0.259   5.318
 2694SOL     OW 8080   3.447   1.369   3.856
 2694SOL    HW1 8081   3.440   1.463   3.823
 2694SOL    HW2 8082   3.382   1.311   3.807
 2695SOL     OW 8083   2.333   1.729   4.059
 2695SOL    HW1 8084   2.372   1.798   4.119
 2695SOL    HW2 8085   2.403   1.697   3.995
 2696SOL     OW 8086   3.230   0.107   4.132
 2696SOL    HW1 8087   3.231   0.114   4.032
 2696SOL    HW2 8088   3.321   0.128   4.167
 2697SOL     OW 8089   2.135   1.815   4.917
 2697SOL    HW1 8090   2.149   1.736   4.977
 2697SOL    HW2 8091   2.118   1.784   4.823
 2698SOL     OW 8092   2.798   1.721   4.627
 2698SOL    HW1 8093   2.849   1.658   4.685
 2698SOL    HW2 8094   2.755   1.671   4.552
 2699SOL     OW 8095   2.250   0.685   4.184
 2699SOL    HW1 8096   2.260   0.587   4.202
 2699SOL    HW2 8097   2.154   0.712   4.198
 2700SOL     OW 8098   3.387   0.234   5.477
 2700SOL    HW1 8099   3.356   0.277   5.561
 2700SOL    HW2 8100   3.345   0.143   5.469
 2701SOL     OW 8101   2.474   0.109   3.789
 2701SOL    HW1 8102   2.566   0.073   3.802
 2701SOL    HW2 8103   2.430   0.062   3.713
 2702SOL     OW 8104   2.621   0.253   5.458
 2702SOL    HW1 8105   2.698   0.199   5.493
 2702SOL    HW2 8106   2.573   0.295   5.535
 2703SOL     OW 8107   2.772   1.535   4.919
 2703SOL    HW1 8108   2.732   1.493   4.837
 2703SOL    HW2 8109   2.843   1.474   4.956
 2704SOL     OW 8110   3.204   0.599   5.169
 2704SOL    HW1 8111   3.235   0.578   5.262
 2704SOL    HW2 8112   3.236   0.690   5.143
 2705SOL     OW 8113   2.641   1.390   4.645
 2705SOL    HW1 8114   2.727   1.422   4.605
 2705SOL    HW2 8115   2.576   1.369   4.573
 2706SOL     OW 8116   2.796   0.496   4.616
 2706SOL    HW1 8117   2.738   0.472   4.539
 2706SOL    HW2 8118   2.828   0.413   4.662
 2707SOL     OW 8119   2.425   0.071   4.190
 2707SOL    HW1 8120   2.345   0.064   4.250
 2707SOL    HW2 8121   2.419   0.155   4.137
 2708SOL     OW 8122   3.268   1.196   3.737
 2708SOL    HW1 8123   3.300   1.106   3.767
 2708SOL    HW2 8124   3.197   1.229   3.800
 2709SOL     OW 8125   2.158   0.050   3.920
 2709SOL    HW1 8126   2.194   0.098   3.840
 2709SOL    HW2 8127   2.231   5.995   3.962
 2710SOL     OW 8128   2.834   0.275   4.201
 2710SOL    HW1 8129   2.790   0.238   4.119
 2710SOL    HW2 8130   2.931   0.290   4.182
 2711SOL     OW 8131   2.952   0.669   5.169
 2711SOL    HW1 8132   2.882   0.599   5.179
 2711SOL    HW2 8133   3.043   0.627   5.169
 2712SOL     OW 8134   3.060   1.554   4.513
 2712SOL    HW1 8135   3.097   1.583   4.425
 2712SOL    HW2 8136   3.133   1.554   4.581
 2713SOL     OW 8137   2.323   1.148   4.468
 2713SOL    HW1 8138   2.243   1.120   4.521
 2713SOL    HW2 8139   2.301   1.146   4.370
 2714SOL     OW 8140   3.156   1.799   4.302
 2714SOL    HW1 8141   3.187   1.866   4.235
 2714SOL    HW2 8142   3.105   1.845   4.374
 2715SOL     OW 8143   2.884   0.551   3.671
 2715SOL    HW1 8144   2.825   0.631   3.662
 2715SOL    HW2 8145   2.937   0.558   3.755
 2716SOL     OW 8146   1.941   0.552   5.126
 2716SOL    HW1 8147   2.026   0.536   5.076
 2716SOL    HW2 8148   1.954   0.628   5.190
 2717SOL     OW 8149   2.411   0.260   4.912
 2717SOL    HW1 8150   2.456   0.201   4.979
 2717SOL    HW2 8151   2.312   0.248   4.920
 2718SOL     OW 8152   2.693   0.407   4.378
 2718SOL    HW1 8153   2.653   0.474   4.315
 2718SOL    HW2 8154   2.762   0.353   4.329
 2719SOL     OW 8155   2.860   0.042   4.476
 2719SOL    HW1 8156   2.782   0.041   4.414
 2719SOL    HW2 8157   2.868   5.954   4.521
 2720SOL     OW 8158   3.312   1.126   4.616
 2720SOL    HW1 8159   3.226   1.079   4.637
 2720SOL    HW2 8160   3.338   1.107   4.522
 2721SOL     OW 8161   3.336   0.585   4.679
 2721SOL    HW1 8162   3.290   0.497   4.674
 2721SOL    HW2 8163   3.393   0.588   4.761
 2722SOL     OW 8164   3.740   0.767   4.080
 2722SOL    HW1 8165   3.779   0.727   4.162
 2722SOL    HW2 8166   3.676   0.703   4.038
 2723SOL     OW 8167   2.351   1.410   3.915
 2723SOL    HW1 8168   2.260   1.388   3.950
 2723SOL    HW2 8169   2.358   1.381   3.819
 2724SOL     OW 8170   3.575   1.290   4.437
 2724SOL    HW1 8171   3.666   1.308   4.398
 2724SOL    HW2 8172   3.518   1.372   4.428
 2725SOL     OW 8173   3.235   0.584   3.811
 2725SOL    HW1 8174   3.169   0.536   3.869
 2725SOL    HW2 8175   3.328   0.555   3.836
 2726SOL     OW 8176   2.424   0.266   4.019
 2726SOL    HW1 8177   2.422   0.207   3.938
 2726SOL    HW2 8178   2.398   0.359   3.994
 2727SOL     OW 8179   3.610   1.268   5.287
 2727SOL    HW1 8180   3.697   1.218   5.291
 2727SOL    HW2 8181   3.626   1.363   5.314
 2728SOL     OW 8182   2.919   1.356   5.087
 2728SOL    HW1 8183   2.832   1.328   5.128
 2728SOL    HW2 8184   2.994   1.310   5.135
 2729SOL     OW 8185   3.463   1.669   5.379
 2729SOL    HW1 8186   3.458   1.694   5.282
 2729SOL    HW2 8187   3.545   1.614   5.395
 2730SOL     OW 8188   2.913   1.179   4.854
 2730SOL    HW1 8189   2.917   1.244   4.929
 2730SOL    HW2 8190   2.901   1.228   4.768
 2731SOL     OW 8191   3.499   1.084   4.823
 2731SOL    HW1 8192   3.491   1.156   4.892
 2731SOL    HW2 8193   3.429   1.098   4.752
 2732SOL     OW 8194   2.792   0.164   5.084
 2732SOL    HW1 8195   2.820   0.089   5.024
 2732SOL    HW2 8196   2.855   0.170   5.161
 2733SOL     OW 8197   2.845   1.105   5.445
 2733SOL    HW1 8198   2.747   1.125   5.453
 2733SOL    HW2 8199   2.858   1.029   5.381
 2734SOL     OW 8200   2.581   1.070   4.134
 2734SOL    HW1 8201   2.564   1.050   4.230
 2734SOL    HW2 8202   2.661   1.019   4.103
 2735SOL     OW 8203   2.268   0.808   4.976
 2735SOL    HW1 8204   2.351   0.815   5.032
 2735SOL    HW2 8205   2.228   0.717   4.988
 2736SOL     OW 8206   3.129   0.394   5.027
 2736SOL    HW1 8207   3.164   0.477   5.071
 2736SOL    HW2 8208   3.043   0.414   4.982
 2737SOL     OW 8209   1.925   1.549   5.080
 2737SOL    HW1 8210   1.879   1.616   5.021
 2737SOL    HW2 8211   2.021   1.575   5.090
 2738SOL     OW 8212   2.249   1.135   4.210
 2738SOL    HW1 8213   2.225   1.213   4.152
 2738SOL    HW2 8214   2.281   1.059   4.153
 2739SOL     OW 8215   2.441   0.526   4.582
 2739SOL    HW1 8216   2.440   0.593   4.507
 2739SOL    HW2 8217   2.504   0.557   4.653
 2740SOL     OW 8218   3.108   1.356   4.096
 2740SOL    HW1 8219   3.166   1.420   4.147
 2740SOL    HW2 8220   3.012   1.384   4.104
 2741SOL     OW 8221   3.193   1.438   4.876
 2741SOL    HW1 8222   3.247   1.465   4.955
 2741SOL    HW2 8223   3.127   1.368   4.903
 2742SOL     OW 8224   3.482   0.643   4.239
 2742SOL    HW1 8225   3.400   0.687   4.276
 2742SOL    HW2 8226   3.495   0.671   4.144
 2743SOL     OW 8227   2.203   1.542   5.013
 2743SOL    HW1 8228   2.203   1.497   4.924
 2743SOL    HW2 8229   2.297   1.561   5.041
 2744SOL     OW 8230   2.261   0.720   5.300
 2744SOL    HW1 8231   2.311   0.774   5.232
 2744SOL    HW2 8232   2.325   0.663   5.351
 2745SOL     OW 8233   3.485   0.821   5.408
 2745SOL    HW1 8234   3.388   0.840   5.397
 2745SOL    HW2 8235   3.536   0.869   5.336
 2746SOL     OW 8236   2.868   0.146   5.517
 2746SOL    HW1 8237   2.936   0.206   5.475
 2746SOL    HW2 8238   2.852   0.067   5.458
 2747SOL     OW 8239   2.319   0.003   5.455
 2747SOL    HW1 8240   2.329   6.000   5.355
 2747SOL    HW2 8241   2.261   0.080   5.480
 2748SOL     OW 8242   2.399   0.866   4.734
 2748SOL    HW1 8243   2.452   0.950   4.732
 2748SOL    HW2 8244   2.349   0.860   4.821
 2749SOL     OW 8245   3.190   0.838   4.766
 2749SOL    HW1 8246   3.102   0.840   4.719
 2749SOL    HW2 8247   3.238   0.753   4.744
 2750SOL     OW 8248   3.067   0.474   3.983
 2750SOL    HW1 8249   3.093   0.414   4.059
 2750SOL    HW2 8250   3.028   0.558   4.020
 2751SOL     OW 8251   2.148   0.195   4.988
 2751SOL    HW1 8252   2.123   0.208   5.085
 2751SOL    HW2 8253   2.165   0.099   4.970
 2752SOL     OW 8254   1.914   1.290   5.016
 2752SOL    HW1 8255   1.965   1.238   5.085
 2752SOL    HW2 8256   1.917   1.387   5.039
 2753SOL     OW 8257   2.635   0.653   4.774
 2753SOL    HW1 8258   2.702   0.606   4.716
 2753SOL    HW2 8259   2.609   0.739   4.731
 2754SOL     OW 8260   3.625   0.986   5.605
 2754SOL    HW1 8261   3.590   0.921   5.537
 2754SOL    HW2 8262   3.558   0.996   5.679
 2755SOL     OW 8263   2.208   0.047   4.338
 2755SOL    HW1 8264   2.182   0.138   4.372
 2755SOL    HW2 8265   2.139   5.981   4.366
 2756SOL     OW 8266   3.432   0.395   4.112
 2756SOL    HW1 8267   3.480   0.315   4.146
 2756SOL    HW2 8268   3.432   0.467   4.182
 2757SOL     OW 8269   2.915   0.764   4.679
 2757SOL    HW1 8270   2.910   0.774   4.779
 2757SOL    HW2 8271   2.866   0.681   4.651
 2758SOL     OW 8272   2.856   1.573   5.457
 2758SOL    HW1 8273   2.822   1.620   5.376
 2758SOL    HW2 8274   2.905   1.490   5.430
 2759SOL     OW 8275   3.700   1.527   5.356
 2759SOL    HW1 8276   3.731   1.556   5.265
 2759SOL    HW2 8277   3.774   1.539   5.422
 2760SOL     OW 8278   2.218   0.924   5.507
 2760SOL    HW1 8279   2.296   0.935   5.568
 2760SOL    HW2 8280   2.239   0.854   5.439
 2761SOL     OW 8281   3.341   0.314   3.877
 2761SOL    HW1 8282   3.293   0.227   3.876
 2761SOL    HW2 8283   3.362   0.339   3.971
 2762SOL     OW 8284   3.160   0.848   3.776
 2762SOL    HW1 8285   3.176   0.749   3.779
 2762SOL    HW2 8286   3.183   0.882   3.684
 2763SOL     OW 8287   2.919   1.363   4.636
 2763SOL    HW1 8288   2.914   1.288   4.569
 2763SOL    HW2 8289   2.968   1.440   4.596
 2764SOL     OW 8290   2.155   0.769   4.679
 2764SOL    HW1 8291   2.246   0.805   4.660
 2764SOL    HW2 8292   2.163   0.674   4.710
 2765SOL     OW 8293   2.206   0.507   4.724
 2765SOL    HW1 8294   2.164   0.416   4.721
 2765SOL    HW2 8295   2.281   0.511   4.659
 2766SOL     OW 8296   3.042   0.371   5.426
 2766SOL    HW1 8297   2.968   0.421   5.472
 2766SOL    HW2 8298   3.119   0.433   5.410
 2767SOL     OW 8299   3.016   0.191   5.240
 2767SOL    HW1 8300   3.015   0.263   5.309
 2767SOL    HW2 8301   3.033   0.231   5.150
 2768SOL     OW 8302   1.838   1.345   3.943
 2768SOL    HW1 8303   1.741   1.352   3.918
 2768SOL    HW2 8304   1.859   1.251   3.968
 2769SOL     OW 8305   1.957   1.777   4.668
 2769SOL    HW1 8306   1.910   1.700   4.625
 2769SOL    HW2 8307   2.045   1.792   4.623
 2770SOL     OW 8308   2.365   1.593   4.632
 2770SOL    HW1 8309   2.444   1.653   4.646
 2770SOL    HW2 8310   2.389   1.520   4.568
 2771SOL     OW 8311   2.845   0.779   4.942
 2771SOL    HW1 8312   2.890   0.772   5.031
 2771SOL    HW2 8313   2.783   0.701   4.930
 2772SOL     OW 8314   1.879   0.528   4.844
 2772SOL    HW1 8315   1.959   0.525   4.785
 2772SOL    HW2 8316   1.907   0.509   4.939
 2773SOL     OW 8317   2.081   0.504   5.441
 2773SOL    HW1 8318   2.128   0.453   5.370
 2773SOL    HW2 8319   2.046   0.590   5.403
 2774SOL     OW 8320   3.246   0.930   5.356
 2774SOL    HW1 8321   3.277   1.025   5.360
 2774SOL    HW2 8322   3.242   0.900   5.261
 2775SOL     OW 8323   2.694   0.564   4.036
 2775SOL    HW1 8324   2.697   0.484   3.976
 2775SOL    HW2 8325   2.603   0.606   4.031
 2776SOL     OW 8326   3.482   0.572   4.905
 2776SOL    HW1 8327   3.467   0.549   5.001
 2776SOL    HW2 8328   3.578   0.556   4.881
 2777SOL     OW 8329   2.103   1.545   5.465
 2777SOL    HW1 8330   2.092   1.599   5.549
 2777SOL    HW2 8331   2.098   1.447   5.488
 2778SOL     OW 8332   2.589   0.474   4.972
 2778SOL    HW1 8333   2.515   0.408   4.962
 2778SOL    HW2 8334   2.583   0.541   4.897
 2779SOL     OW 8335   2.777   1.653   5.202
 2779SOL    HW1 8336   2.781   1.607   5.112
 2779SOL    HW2 8337   2.760   1.750   5.189
 2780SOL     OW 8338   2.370   0.491   3.872
 2780SOL    HW1 8339   2.422   0.562   3.920
 2780SOL    HW2 8340   2.274   0.520   3.866
 2781SOL     OW 8341   2.040   1.140   5.194
 2781SOL    HW1 8342   2.009   1.099   5.279
 2781SOL    HW2 8343   2.041   1.071   5.121
 2782SOL     OW 8344   3.159   1.042   4.961
 2782SOL    HW1 8345   3.192   0.987   4.884
 2782SOL    HW2 8346   3.063   1.067   4.946
 2783SOL     OW 8347   3.182   0.888   4.034
 2783SOL    HW1 8348   3.100   0.853   4.079
 2783SOL    HW2 8349   3.180   0.866   3.937
 2784SOL     OW 8350   3.665   1.704   4.890
 2784SOL    HW1 8351   3.732   1.729   4.820
 2784SOL    HW2 8352   3.612   1.625   4.858
 2785SOL     OW 8353   3.078   1.703   4.867
 2785SOL    HW1 8354   3.149   1.769   4.841
 2785SOL    HW2 8355   3.114   1.610   4.859
 2786SOL     OW 8356   1.960   1.274   4.759
 2786SOL    HW1 8357   1.949   1.273   4.858
 2786SOL    HW2 8358   1.883   1.227   4.716
 2787SOL     OW 8359   2.571   1.668   5.470
 2787SOL    HW1 8360   2.471   1.675   5.464
 2787SOL    HW2 8361   2.611   1.690   5.381
 2788SOL     OW 8362   3.512   0.134   4.198
 2788SOL    HW1 8363   3.611   0.133   4.185
 2788SOL    HW2 8364   3.490   0.094   4.287
 2789SOL     OW 8365   3.222   1.562   4.213
 2789SOL    HW1 8366   3.296   1.572   4.146
 2789SOL    HW2 8367   3.187   1.652   4.238
 2790SOL     OW 8368   2.016   1.818   5.557
 2790SOL    HW1 8369   1.933   1.766   5.581
 2790SOL    HW2 8370   2.069   1.836   5.639
 2791SOL     OW 8371   3.137   0.918   4.375
 2791SOL    HW1 8372   3.208   0.854   4.404
 2791SOL    HW2 8373   3.179   1.003   4.346
 2792SOL     OW 8374   2.649   1.248   5.120
 2792SOL    HW1 8375   2.627   1.303   5.201
 2792SOL    HW2 8376   2.572   1.252   5.056
 2793SOL     OW 8377   2.518   1.615   3.890
 2793SOL    HW1 8378   2.544   1.630   3.795
 2793SOL    HW2 8379   2.460   1.533   3.895
 2794SOL     OW 8380   3.504   1.740   5.115
 2794SOL    HW1 8381   3.563   1.732   5.035
 2794SOL    HW2 8382   3.479   1.836   5.130
 2795SOL     OW 8383   3.733   0.135   4.682
 2795SOL    HW1 8384   3.746   0.060   4.617
 2795SOL    HW2 8385   3.642   0.175   4.668
 2796SOL     OW 8386   2.120   0.284   4.426
 2796SOL    HW1 8387   2.032   0.311   4.387
 2796SOL    HW2 8388   2.119   0.297   4.525
 2797SOL     OW 8389   3.090   1.603   3.739
 2797SOL    HW1 8390   3.059   1.520   3.785
 2797SOL    HW2 8391   3.032   1.620   3.659
 2798SOL     OW 8392   2.711   0.996   5.092
 2798SOL    HW1 8393   2.771   0.974   5.015
 2798SOL    HW2 8394   2.686   1.092   5.088
 2799SOL     OW 8395   2.768   0.924   3.998
 2799SOL    HW1 8396   2.844   0.967   3.950
 2799SOL    HW2 8397   2.777   0.825   3.994
 2800SOL     OW 8398   3.381   1.637   3.796
 2800SOL    HW1 8399   3.282   1.634   3.812
 2800SOL    HW2 8400   3.399   1.649   3.699
 2801SOL     OW 8401   2.230   1.317   5.249
 2801SOL    HW1 8402   2.227   1.384   5.175
 2801SOL    HW2 8403   2.158   1.249   5.235
 2802SOL     OW 8404   3.478   1.285   5.027
 2802SOL    HW1 8405   3.531   1.267   5.110
 2802SOL    HW2 8406   3.420   1.366   5.042
 2803SOL     OW 8407   2.862   1.145   4.472
 2803SOL    HW1 8408   2.808   1.066   4.501
 2803SOL    HW2 8409   2.923   1.118   4.397
 2804SOL     OW 8410   2.933   0.204   4.696
 2804SOL    HW1 8411   2.922   0.178   4.600
 2804SOL    HW2 8412   2.874   0.147   4.754
 2805SOL     OW 8413   2.496   1.479   4.169
 2805SOL    HW1 8414   2.541   1.418   4.104
 2805SOL    HW2 8415   2.415   1.519   4.125
 2806SOL     OW 8416   3.591   0.377   5.129
 2806SOL    HW1 8417   3.646   0.461   5.125
 2806SOL    HW2 8418   3.619   0.315   5.056
 2807SOL     OW 8419   2.100   1.359   4.008
 2807SOL    HW1 8420   2.010   1.386   3.975
 2807SOL    HW2 8421   2.111   1.390   4.103
 2808SOL     OW 8422   1.977   1.056   5.450
 2808SOL    HW1 8423   1.904   1.028   5.512
 2808SOL    HW2 8424   2.061   1.006   5.473
 2809SOL     OW 8425   2.549   0.225   5.173
 2809SOL    HW1 8426   2.635   0.200   5.127
 2809SOL    HW2 8427   2.568   0.248   5.268
 2810SOL     OW 8428   1.924   0.346   3.754
 2810SOL    HW1 8429   1.824   0.349   3.760
 2810SOL    HW2 8430   1.957   0.425   3.703
 2811SOL     OW 8431   3.296   0.848   5.109
 2811SOL    HW1 8432   3.235   0.911   5.061
 2811SOL    HW2 8433   3.390   0.863   5.078
 2812SOL     OW 8434   1.950   0.177   4.074
 2812SOL    HW1 8435   1.879   0.212   4.013
 2812SOL    HW2 8436   2.023   0.137   4.019
 2813SOL     OW 8437   3.052   1.348   3.838
 2813SOL    HW1 8438   2.994   1.267   3.833
 2813SOL    HW2 8439   3.088   1.357   3.930
 2814SOL     OW 8440   2.477   0.820   5.158
 2814SOL    HW1 8441   2.526   0.906   5.141
 2814SOL    HW2 8442   2.543   0.749   5.180
 2815SOL     OW 8443   3.357   1.795   4.731
 2815SOL    HW1 8444   3.329   1.867   4.668
 2815SOL    HW2 8445   3.452   1.769   4.712
 2816SOL     OW 8446   2.574   0.571   5.435
 2816SOL    HW1 8447   2.605   0.651   5.486
 2816SOL    HW2 8448   2.598   0.488   5.486
 2817SOL     OW 8449   3.319   1.195   5.362
 2817SOL    HW1 8450   3.306   1.200   5.461
 2817SOL    HW2 8451   3.408   1.234   5.338
 2818SOL     OW 8452   2.237   1.735   5.257
 2818SOL    HW1 8453   2.150   1.783   5.252
 2818SOL    HW2 8454   2.224   1.647   5.303
 2819SOL     OW 8455   3.533   0.861   4.965
 2819SOL    HW1 8456   3.516   0.778   4.913
 2819SOL    HW2 8457   3.531   0.940   4.904
 2820SOL     OW 8458   3.090   0.317   4.194
 2820SOL    HW1 8459   3.136   0.228   4.193
 2820SOL    HW2 8460   3.117   0.367   4.276
 2821SOL     OW 8461   2.414   0.730   4.399
 2821SOL    HW1 8462   2.461   0.818   4.394
 2821SOL    HW2 8463   2.352   0.720   4.321
 2822SOL     OW 8464   3.602   0.373   5.397
 2822SOL    HW1 8465   3.600   0.378   5.297
 2822SOL    HW2 8466   3.524   0.318   5.429
 2823SOL     OW 8467   3.608   0.959   5.207
 2823SOL    HW1 8468   3.608   1.059   5.198
 2823SOL    HW2 8469   3.597   0.917   5.117
 2824SOL     OW 8470   2.707   1.410   3.733
 2824SOL    HW1 8471   2.711   1.398   3.832
 2824SOL    HW2 8472   2.759   1.491   3.706
 2825SOL     OW 8473   2.536   1.801   4.673
 2825SOL    HW1 8474   2.492   1.891   4.670
 2825SOL    HW2 8475   2.634   1.812   4.655
 2826SOL     OW 8476   2.726   0.941   4.611
 2826SOL    HW1 8477   2.803   0.884   4.636
 2826SOL    HW2 8478   2.701   0.999   4.689
 2827SOL     OW 8479   2.948   1.027   3.816
 2827SOL    HW1 8480   2.909   1.053   3.727
 2827SOL    HW2 8481   3.021   0.960   3.802
 2828SOL     OW 8482   3.677   1.562   4.585
 2828SOL    HW1 8483   3.599   1.546   4.525
 2828SOL    HW2 8484   3.670   1.506   4.666
 2829SOL     OW 8485   2.062   1.278   5.598
 2829SOL    HW1 8486   2.037   1.190   5.556
 2829SOL    HW2 8487   2.003   1.294   5.677
 2830SOL     OW 8488   1.987   1.219   4.352
 2830SOL    HW1 8489   1.991   1.187   4.447
 2830SOL    HW2 8490   2.060   1.174   4.299
 2831SOL     OW 8491   2.594   1.380   5.341
 2831SOL    HW1 8492   2.498   1.376   5.367
 2831SOL    HW2 8493   2.638   1.457   5.388
 2832SOL     OW 8494   3.674   0.197   4.951
 2832SOL    HW1 8495   3.677   0.114   5.006
 2832SOL    HW2 8496   3.702   0.177   4.857
 2833SOL     OW 8497   2.262   0.425   4.243
 2833SOL    HW1 8498   2.314   0.354   4.195
 2833SOL    HW2 8499   2.204   0.383   4.312
 2834SOL     OW 8500   3.552   1.466   4.822
 2834SOL    HW1 8501   3.462   1.461   4.777
 2834SOL    HW2 8502   3.558   1.395   4.892
 2835SOL     OW 8503   2.175   0.553   4.987
 2835SOL    HW1 8504   2.239   0.506   5.047
 2835SOL    HW2 8505   2.196   0.530   4.892
 2836SOL     OW 8506   2.682   1.566   4.420
 2836SOL    HW1 8507   2.692   1.581   4.322
 2836SOL    HW2 8508   2.590   1.531   4.439
 2837SOL     OW 8509   3.344   0.269   4.874
 2837SOL    HW1 8510   3.401   0.211   4.932
 2837SOL    HW2 8511   3.298   0.338   4.930
 2838SOL     OW 8512   2.857   5.948   4.923
 2838SOL    HW1 8513   2.786   5.960   4.854
 2838SOL    HW2 8514   2.946   5.941   4.879
 2839SOL     OW 8515   2.687   1.298   4.054
 2839SOL    HW1 8516   2.627   1.221   4.076
 2839SOL    HW2 8517   2.738   1.324   4.136
 2840SOL     OW 8518   2.491   1.554   5.008
 2840SOL    HW1 8519   2.485   1.633   5.069
 2840SOL    HW2 8520   2.585   1.543   4.976
 2841SOL     OW 8521   3.226   0.066   3.867
 2841SOL    HW1 8522   3.255   0.007   3.791
 2841SOL    HW2 8523   3.152   0.022   3.917
 2842SOL     OW 8524   3.141   0.469   4.421
 2842SOL    HW1 8525   3.084   0.551   4.419
 2842SOL    HW2 8526   3.156   0.441   4.516
 2843SOL     OW 8527   3.491   0.244   4.637
 2843SOL    HW1 8528   3.443   0.252   4.724
 2843SOL    HW2 8529   3.454   0.312   4.573
 2844SOL     OW 8530   1.889   1.088   4.009
 2844SOL    HW1 8531   1.989   1.085   4.008
 2844SOL    HW2 8532   1.853   0.994   4.005
 2845SOL     OW 8533   2.749   1.652   4.009
 2845SOL    HW1 8534   2.662   1.628   3.967
 2845SOL    HW2 8535   2.733   1.721   4.080
 2846SOL     OW 8536   2.108   0.651   5.700
 2846SOL    HW1 8537   2.031   0.657   5.763
 2846SOL    HW2 8538   2.077   0.615   5.612
 2847SOL     OW 8539   3.647   0.590   5.819
 2847SOL    HW1 8540   3.646   0.616   5.723
 2847SOL    HW2 8541   3.567   0.534   5.840
 2848SOL     OW 8542   2.094   1.692   0.047
 2848SOL    HW1 8543   2.147   1.715   0.129
 2848SOL    HW2 8544   2.142   1.727   5.966
 2849SOL     OW 8545   2.463   0.968   5.755
 2849SOL    HW1 8546   2.483   1.037   5.685
 2849SOL    HW2 8547   2.497   0.999   5.843
 2850SOL     OW 8548   3.717   1.746   5.916
 2850SOL    HW1 8549   3.741   1.697   6.000
 2850SOL    HW2 8550   3.729   1.844   5.931
 2851SOL     OW 8551   1.846   1.624   5.671
 2851SOL    HW1 8552   1.852   1.527   5.692
 2851SOL    HW2 8553   1.844   1.676   5.757
 2852SOL     OW 8554   3.573   0.925   0.216
 2852SOL    HW1 8555   3.645   0.885   0.272
 2852SOL    HW2 8556   3.596   0.914   0.119
 2853SOL     OW 8557   3.522   1.131   5.970
 2853SOL    HW1 8558   3.621   1.116   5.974
 2853SOL    HW2 8559   3.482   1.117   0.060
 2854SOL     OW 8560   3.373   0.987   5.765
 2854SOL    HW1 8561   3.288   0.937   5.781
 2854SOL    HW2 8562   3.415   1.010   5.853
 2855SOL     OW 8563   2.428   0.728   5.877
 2855SOL    HW1 8564   2.437   0.803   5.810
 2855SOL    HW2 8565   2.405   0.767   5.966
 2856SOL     OW 8566   2.689   0.391   5.715
 2856SOL    HW1 8567   2.777   0.409   5.671
 2856SOL    HW2 8568   2.698   0.316   5.779
 2857SOL     OW 8569   2.182   0.942   5.840
 2857SOL    HW1 8570   2.275   0.968   5.812
 2857SOL    HW2 8571   2.142   0.883   5.770
 2858SOL     OW 8572   3.022   1.762   5.826
 2858SOL    HW1 8573   2.926   1.739   5.839
 2858SOL    HW2 8574   3.056   1.716   5.743
 2859SOL     OW 8575   3.500   1.357   5.643
 2859SOL    HW1 8576   3.472   1.452   5.658
 2859SOL    HW2 8577   3.419   1.300   5.628
 2860SOL     OW 8578   2.361   1.786   5.934
 2860SOL    HW1 8579   2.406   1.854   5.993
 2860SOL    HW2 8580   2.428   1.745   5.873
 2861SOL     OW 8581   2.465   0.101   5.653
 2861SOL    HW1 8582   2.560   0.071   5.655
 2861SOL    HW2 8583   2.422   0.067   5.569
 2862SOL     OW 8584   3.274   1.198   5.620
 2862SOL    HW1 8585   3.316   1.119   5.665
 2862SOL    HW2 8586   3.209   1.241   5.683
 2863SOL     OW 8587   2.152   0.058   5.778
 2863SOL    HW1 8588   2.169   0.107   5.693
 2863SOL    HW2 8589   2.219   5.984   5.788
 2864SOL     OW 8590   2.871   0.531   5.551
 2864SOL    HW1 8591   2.804   0.605   5.542
 2864SOL    HW2 8592   2.950   0.564   5.604
 2865SOL     OW 8593   3.704   0.821   5.966
 2865SOL    HW1 8594   3.742   0.776   0.047
 2865SOL    HW2 8595   3.686   0.753   5.895
 2866SOL     OW 8596   2.349   1.433   5.763
 2866SOL    HW1 8597   2.267   1.401   5.810
 2866SOL    HW2 8598   2.355   1.389   5.673
 2867SOL     OW 8599   3.559   1.347   0.341
 2867SOL    HW1 8600   3.642   1.294   0.322
 2867SOL    HW2 8601   3.508   1.362   0.256
 2868SOL     OW 8602   3.236   0.596   5.667
 2868SOL    HW1 8603   3.168   0.573   5.738
 2868SOL    HW2 8604   3.328   0.577   5.702
 2869SOL     OW 8605   2.396   0.240   5.875
 2869SOL    HW1 8606   2.400   0.185   5.792
 2869SOL    HW2 8607   2.368   0.333   5.853
 2870SOL     OW 8608   2.258   1.115   0.050
 2870SOL    HW1 8609   2.229   1.193   5.994
 2870SOL    HW2 8610   2.206   1.034   0.023
 2871SOL     OW 8611   3.094   0.568   5.891
 2871SOL    HW1 8612   3.137   0.483   5.922
 2871SOL    HW2 8613   3.001   0.574   5.929
 2872SOL     OW 8614   3.346   0.305   5.748
 2872SOL    HW1 8615   3.291   0.222   5.740
 2872SOL    HW2 8616   3.422   0.288   5.811
 2873SOL     OW 8617   3.148   0.842   5.600
 2873SOL    HW1 8618   3.181   0.749   5.619
 2873SOL    HW2 8619   3.184   0.873   5.513
 2874SOL     OW 8620   1.867   1.324   5.778
 2874SOL    HW1 8621   1.786   1.331   5.720
 2874SOL    HW2 8622   1.869   1.235   5.823
 2875SOL     OW 8623   2.668   0.604   5.867
 2875SOL    HW1 8624   2.665   0.516   5.819
 2875SOL    HW2 8625   2.575   0.640   5.873
 2876SOL     OW 8626   2.319   0.478   5.779
 2876SOL    HW1 8627   2.376   0.556   5.803
 2876SOL    HW2 8628   2.241   0.510   5.725
 2877SOL     OW 8629   3.554   0.085   0.149
 2877SOL    HW1 8630   3.596   0.160   0.097
 2877SOL    HW2 8631   3.614   0.005   0.146
 2878SOL     OW 8632   2.540   1.619   5.761
 2878SOL    HW1 8633   2.560   1.636   5.665
 2878SOL    HW2 8634   2.467   1.551   5.769
 2879SOL     OW 8635   3.097   1.625   5.606
 2879SOL    HW1 8636   3.063   1.537   5.641
 2879SOL    HW2 8637   3.053   1.645   5.518
 2880SOL     OW 8638   2.796   0.879   5.887
 2880SOL    HW1 8639   2.846   0.917   5.809
 2880SOL    HW2 8640   2.750   0.795   5.859
 2881SOL     OW 8641   3.364   1.688   5.638
 2881SOL    HW1 8642   3.268   1.660   5.635
 2881SOL    HW2 8643   3.405   1.678   5.547
 2882SOL     OW 8644   2.955   1.090   0.354
 2882SOL    HW1 8645   2.856   1.097   0.366
 2882SOL    HW2 8646   2.975   1.047   0.266
 2883SOL     OW 8647   2.112   1.363   5.900
 2883SOL    HW1 8648   2.024   1.353   5.854
 2883SOL    HW2 8649   2.106   1.436   5.968
 2884SOL     OW 8650   1.917   0.339   5.611
 2884SOL    HW1 8651   1.828   0.345   5.566
 2884SOL    HW2 8652   1.975   0.414   5.579
 2885SOL     OW 8653   1.956   0.161   5.918
 2885SOL    HW1 8654   1.890   0.207   5.858
 2885SOL    HW2 8655   2.026   0.116   5.863
 2886SOL     OW 8656   3.067   1.364   5.745
 2886SOL    HW1 8657   2.972   1.344   5.720
 2886SOL    HW2 8658   3.089   1.318   5.830
 2887SOL     OW 8659   3.143   0.331   0.016
 2887SOL    HW1 8660   3.104   0.243   5.991
 2887SOL    HW2 8661   3.176   0.328   0.110
 2888SOL     OW 8662   2.713   1.410   5.613
 2888SOL    HW1 8663   2.700   1.449   5.704
 2888SOL    HW2 8664   2.774   1.468   5.560
 2889SOL     OW 8665   2.935   0.982   5.680
 2889SOL    HW1 8666   2.893   1.026   5.600
 2889SOL    HW2 8667   3.021   0.939   5.653
 2890SOL     OW 8668   3.215   0.076   5.739
 2890SOL    HW1 8669   3.239   0.001   5.678
 2890SOL    HW2 8670   3.160   0.042   5.815
 2891SOL     OW 8671   1.931   1.067   5.876
 2891SOL    HW1 8672   2.027   1.038   5.875
 2891SOL    HW2 8673   1.872   0.987   5.885
 2892SOL     OW 8674   2.771   1.647   5.897
 2892SOL    HW1 8675   2.687   1.624   5.847
 2892SOL    HW2 8676   2.752   1.719   5.964
 2893SOL     OW 8677   2.104   2.542   0.126
 2893SOL    HW1 8678   2.050   2.483   0.185
 2893SOL    HW2 8679   2.149   2.487   0.055
 2894SOL     OW 8680   2.112   2.125   0.960
 2894SOL    HW1 8681   2.141   2.104   1.053
 2894SOL    HW2 8682   2.016   2.099   0.948
 2895SOL     OW 8683   1.883   2.241   0.633
 2895SOL    HW1 8684   1.809   2.270   0.694
 2895SOL    HW2 8685   1.850   2.166   0.575
 2896SOL     OW 8686   2.398   3.170   1.172
 2896SOL    HW1 8687   2.318   3.192   1.116
 2896SOL    HW2 8688   2.433   3.254   1.213
 2897SOL     OW 8689   3.418   3.389   0.709
 2897SOL    HW1 8690   3.380   3.349   0.792
 2897SOL    HW2 8691   3.345   3.401   0.642
 2898SOL     OW 8692   2.970   2.556   0.632
 2898SOL    HW1 8693   3.035   2.630   0.649
 2898SOL    HW2 8694   2.899   2.557   0.703
 2899SOL     OW 8695   3.534   2.466   0.189
 2899SOL    HW1 8696   3.567   2.447   0.097
 2899SOL    HW2 8697   3.511   2.380   0.235
 2900SOL     OW 8698   2.604   3.032   1.051
 2900SOL    HW1 8699   2.516   3.058   1.091
 2900SOL    HW2 8700   2.645   3.112   1.007
 2901SOL     OW 8701   2.698   2.672   1.796
 2901SOL    HW1 8702   2.703   2.761   1.841
 2901SOL    HW2 8703   2.721   2.682   1.699
 2902SOL     OW 8704   2.510   2.847   0.692
 2902SOL    HW1 8705   2.592   2.850   0.749
 2902SOL    HW2 8706   2.445   2.916   0.724
 2903SOL     OW 8707   2.557   3.016   1.798
 2903SOL    HW1 8708   2.611   3.099   1.807
 2903SOL    HW2 8709   2.463   3.039   1.776
 2904SOL     OW 8710   2.206   3.290   1.029
 2904SOL    HW1 8711   2.116   3.260   0.998
 2904SOL    HW2 8712   2.245   3.354   0.963
 2905SOL     OW 8713   3.338   3.383   1.348
 2905SOL    HW1 8714   3.402   3.459   1.358
 2905SOL    HW2 8715   3.259   3.399   1.407
 2906SOL     OW 8716   2.304   2.289   1.471
 2906SOL    HW1 8717   2.386   2.233   1.468
 2906SOL    HW2 8718   2.225   2.232   1.495
 2907SOL     OW 8719   3.492   2.305   0.752
 2907SOL    HW1 8720   3.458   2.343   0.666
 2907SOL    HW2 8721   3.450   2.353   0.829
 2908SOL     OW 8722   2.110   3.566   0.511
 2908SOL    HW1 8723   2.152   3.654   0.535
 2908SOL    HW2 8724   2.106   3.557   0.412
 2909SOL     OW 8725   2.958   3.202   1.691
 2909SOL    HW1 8726   3.017   3.202   1.772
 2909SOL    HW2 8727   2.894   3.125   1.695
 2910SOL     OW 8728   2.118   3.302   0.544
 2910SOL    HW1 8729   2.112   3.402   0.540
 2910SOL    HW2 8730   2.039   3.266   0.594
 2911SOL     OW 8731   2.097   2.947   0.886
 2911SOL    HW1 8732   2.098   2.858   0.930
 2911SOL    HW2 8733   2.062   3.016   0.951
 2912SOL     OW 8734   2.482   3.619   1.448
 2912SOL    HW1 8735   2.393   3.593   1.485
 2912SOL    HW2 8736   2.499   3.716   1.465
 2913SOL     OW 8737   2.461   2.807   0.123
 2913SOL    HW1 8738   2.406   2.890   0.114
 2913SOL    HW2 8739   2.538   2.826   0.184
 2914SOL     OW 8740   3.497   2.006   1.473
 2914SOL    HW1 8741   3.508   2.097   1.433
 2914SOL    HW2 8742   3.452   2.013   1.562
 2915SOL     OW 8743   1.967   2.482   0.566
 2915SOL    HW1 8744   1.939   2.389   0.591
 2915SOL    HW2 8745   1.950   2.543   0.644
 2916SOL     OW 8746   3.755   3.601   0.326
 2916SOL    HW1 8747   3.751   3.584   0.425
 2916SOL    HW2 8748   3.768   3.699   0.310
 2917SOL     OW 8749   1.832   3.444   0.128
 2917SOL    HW1 8750   1.884   3.359   0.130
 2917SOL    HW2 8751   1.864   3.505   0.200
 2918SOL     OW 8752   3.533   2.762   0.664
 2918SOL    HW1 8753   3.606   2.727   0.605
 2918SOL    HW2 8754   3.488   2.839   0.620
 2919SOL     OW 8755   3.481   2.970   0.511
 2919SOL    HW1 8756   3.524   2.964   0.420
 2919SOL    HW2 8757   3.522   3.046   0.562
 2920SOL     OW 8758   1.994   2.603   1.595
 2920SOL    HW1 8759   2.094   2.599   1.590
 2920SOL    HW2 8760   1.964   2.698   1.587
 2921SOL     OW 8761   2.459   3.242   0.712
 2921SOL    HW1 8762   2.401   3.162   0.726
 2921SOL    HW2 8763   2.452   3.272   0.617
 2922SOL     OW 8764   3.158   3.086   1.440
 2922SOL    HW1 8765   3.169   3.026   1.361
 2922SOL    HW2 8766   3.223   3.058   1.512
 2923SOL     OW 8767   2.684   1.867   0.500
 2923SOL    HW1 8768   2.740   1.949   0.488
 2923SOL    HW2 8769   2.588   1.893   0.512
 2924SOL     OW 8770   2.040   2.811   1.260
 2924SOL    HW1 8771   2.121   2.761   1.230
 2924SOL    HW2 8772   1.961   2.750   1.258
 2925SOL     OW 8773   3.338   2.927   0.186
 2925SOL    HW1 8774   3.276   2.854   0.158
 2925SOL    HW2 8775   3.409   2.889   0.246
 2926SOL     OW 8776   3.074   3.682   1.632
 2926SOL    HW1 8777   3.036   3.740   1.559
 2926SOL    HW2 8778   3.088   3.590   1.596
 2927SOL     OW 8779   2.162   2.101   1.829
 2927SOL    HW1 8780   2.205   2.191   1.831
 2927SOL    HW2 8781   2.068   2.109   1.862
 2928SOL     OW 8782   3.330   3.263   0.924
 2928SOL    HW1 8783   3.270   3.272   1.004
 2928SOL    HW2 8784   3.337   3.166   0.899
 2929SOL     OW 8785   3.529   3.594   0.554
 2929SOL    HW1 8786   3.484   3.567   0.469
 2929SOL    HW2 8787   3.507   3.528   0.626
 2930SOL     OW 8788   2.477   2.559   0.289
 2930SOL    HW1 8789   2.481   2.637   0.227
 2930SOL    HW2 8790   2.399   2.571   0.351
 2931SOL     OW 8791   3.161   2.223   0.935
 2931SOL    HW1 8792   3.063   2.203   0.938
 2931SOL    HW2 8793   3.208   2.170   1.006
 2932SOL     OW 8794   3.442   3.511   0.310
 2932SOL    HW1 8795   3.537   3.540   0.302
 2932SOL    HW2 8796   3.401   3.504   0.219
 2933SOL     OW 8797   2.671   2.462   1.461
 2933SOL    HW1 8798   2.638   2.429   1.550
 2933SOL    HW2 8799   2.630   2.407   1.388
 2934SOL     OW 8800   3.251   2.385   1.693
 2934SOL    HW1 8801   3.225   2.420   1.783
 2934SOL    HW2 8802   3.320   2.314   1.703
 2935SOL     OW 8803   2.837   2.740   1.561
 2935SOL    HW1 8804   2.897   2.666   1.529
 2935SOL    HW2 8805   2.783   2.775   1.485
 2936SOL     OW 8806   2.861   2.236   1.236
 2936SOL    HW1 8807   2.775   2.283   1.254
 2936SOL    HW2 8808   2.855   2.186   1.150
 2937SOL     OW 8809   2.912   2.547   0.373
 2937SOL    HW1 8810   2.926   2.555   0.471
 2937SOL    HW2 8811   2.835   2.486   0.355
 2938SOL     OW 8812   1.947   2.659   0.777
 2938SOL    HW1 8813   2.030   2.647   0.831
 2938SOL    HW2 8814   1.893   2.734   0.816
 2939SOL     OW 8815   2.006   3.685   1.565
 2939SOL    HW1 8816   2.010   3.667   1.663
 2939SOL    HW2 8817   1.938   3.756   1.547
 2940SOL     OW 8818   2.742   2.210   0.151
 2940SOL    HW1 8819   2.802   2.268   0.096
 2940SOL    HW2 8820   2.771   2.114   0.143
 2941SOL     OW 8821   3.572   2.475   1.837
 2941SOL    HW1 8822   3.535   2.561   1.802
 2941SOL    HW2 8823   3.584   2.411   1.761
 2942SOL     OW 8824   3.216   3.015   0.568
 2942SOL    HW1 8825   3.307   2.999   0.529
 2942SOL    HW2 8826   3.154   3.046   0.497
 2943SOL     OW 8827   2.408   2.025   0.904
 2943SOL    HW1 8828   2.424   2.064   0.995
 2943SOL    HW2 8829   2.384   2.098   0.841
 2944SOL     OW 8830   2.879   3.314   0.455
 2944SOL    HW1 8831   2.822   3.386   0.417
 2944SOL    HW2 8832   2.921   3.345   0.541
 2945SOL     OW 8833   2.203   3.659   0.857
 2945SOL    HW1 8834   2.257   3.576   0.860
 2945SOL    HW2 8835   2.261   3.738   0.878
 2946SOL     OW 8836   3.659   2.938   0.906
 2946SOL    HW1 8837   3.616   2.948   0.816
 2946SOL    HW2 8838   3.589   2.921   0.975
 2947SOL     OW 8839   3.116   3.422   1.528
 2947SOL    HW1 8840   3.145   3.330   1.552
 2947SOL    HW2 8841   3.018   3.422   1.507
 2948SOL     OW 8842   2.130   2.790   0.232
 2948SOL    HW1 8843   2.222   2.828   0.224
 2948SOL    HW2 8844   2.126   2.702   0.184
 2949SOL     OW 8845   3.322   2.611   0.745
 2949SOL    HW1 8846   3.328   2.546   0.821
 2949SOL    HW2 8847   3.413   2.648   0.726
 2950SOL     OW 8848   2.311   3.135   1.765
 2950SOL    HW1 8849   2.288   3.154   1.670
 2950SOL    HW2 8850   2.227   3.122   1.818
 2951SOL     OW 8851   3.013   3.611   0.242
 2951SOL    HW1 8852   2.935   3.573   0.292
 2951SOL    HW2 8853   3.028   3.560   0.158
 2952SOL     OW 8854   2.069   2.126   1.508
 2952SOL    HW1 8855   1.990   2.179   1.475
 2952SOL    HW2 8856   2.061   2.115   1.607
 2953SOL     OW 8857   3.444   3.223   0.090
 2953SOL    HW1 8858   3.477   3.315   0.069
 2953SOL    HW2 8859   3.469   3.161   0.015
 2954SOL     OW 8860   2.353   3.604   0.306
 2954SOL    HW1 8861   2.385   3.665   0.378
 2954SOL    HW2 8862   2.431   3.575   0.250
 2955SOL     OW 8863   3.242   1.996   0.420
 2955SOL    HW1 8864   3.231   1.961   0.327
 2955SOL    HW2 8865   3.337   2.019   0.437
 2956SOL     OW 8866   2.121   3.666   1.184
 2956SOL    HW1 8867   2.147   3.584   1.235
 2956SOL    HW2 8868   2.104   3.642   1.088
 2957SOL     OW 8869   2.814   3.573   0.897
 2957SOL    HW1 8870   2.881   3.506   0.929
 2957SOL    HW2 8871   2.763   3.535   0.819
 2958SOL     OW 8872   2.225   2.545   0.461
 2958SOL    HW1 8873   2.242   2.450   0.486
 2958SOL    HW2 8874   2.131   2.569   0.485
 2959SOL     OW 8875   3.377   2.110   1.741
 2959SOL    HW1 8876   3.384   2.135   1.837
 2959SOL    HW2 8877   3.296   2.053   1.726
 2960SOL     OW 8878   2.507   1.958   0.079
 2960SOL    HW1 8879   2.606   1.968   0.090
 2960SOL    HW2 8880   2.469   2.040   0.037
 2961SOL     OW 8881   2.611   2.134   1.748
 2961SOL    HW1 8882   2.701   2.093   1.764
 2961SOL    HW2 8883   2.553   2.119   1.828
 2962SOL     OW 8884   2.772   3.399   1.197
 2962SOL    HW1 8885   2.737   3.357   1.113
 2962SOL    HW2 8886   2.846   3.342   1.234
 2963SOL     OW 8887   3.194   2.472   1.451
 2963SOL    HW1 8888   3.227   2.447   1.542
 2963SOL    HW2 8889   3.238   2.556   1.422
 2964SOL     OW 8890   2.642   3.255   0.913
 2964SOL    HW1 8891   2.725   3.295   0.875
 2964SOL    HW2 8892   2.580   3.230   0.839
 2965SOL     OW 8893   2.777   2.361   0.905
 2965SOL    HW1 8894   2.738   2.337   0.816
 2965SOL    HW2 8895   2.807   2.278   0.952
 2966SOL     OW 8896   2.431   1.930   0.485
 2966SOL    HW1 8897   2.355   1.922   0.549
 2966SOL    HW2 8898   2.413   2.007   0.423
 2967SOL     OW 8899   3.198   3.065   5.991
 2967SOL    HW1 8900   3.279   3.026   0.034
 2967SOL    HW2 8901   3.141   3.110   0.060
 2968SOL     OW 8902   2.816   2.095   0.461
 2968SOL    HW1 8903   2.774   2.147   0.387
 2968SOL    HW2 8904   2.913   2.119   0.467
 2969SOL     OW 8905   2.941   2.526   1.443
 2969SOL    HW1 8906   2.870   2.456   1.445
 2969SOL    HW2 8907   3.031   2.483   1.450
 2970SOL     OW 8908   3.077   3.429   0.811
 2970SOL    HW1 8909   3.121   3.461   0.726
 2970SOL    HW2 8910   3.145   3.426   0.884
 2971SOL     OW 8911   2.303   3.027   0.750
 2971SOL    HW1 8912   2.231   2.994   0.811
 2971SOL    HW2 8913   2.266   3.034   0.657
 2972SOL     OW 8914   3.153   3.685   0.596
 2972SOL    HW1 8915   3.186   3.755   0.532
 2972SOL    HW2 8916   3.108   3.729   0.673
 2973SOL     OW 8917   2.884   2.414   0.036
 2973SOL    HW1 8918   2.803   2.454   5.994
 2973SOL    HW2 8919   2.922   2.478   0.102
 2974SOL     OW 8920   1.938   2.403   1.425
 2974SOL    HW1 8921   2.021   2.387   1.371
 2974SOL    HW2 8922   1.950   2.485   1.482
 2975SOL     OW 8923   2.412   2.100   1.183
 2975SOL    HW1 8924   2.469   2.027   1.221
 2975SOL    HW2 8925   2.317   2.084   1.209
 2976SOL     OW 8926   2.716   2.285   0.656
 2976SOL    HW1 8927   2.674   2.339   0.583
 2976SOL    HW2 8928   2.768   2.209   0.616
 2977SOL     OW 8929   2.831   1.936   0.740
 2977SOL    HW1 8930   2.792   1.900   0.656
 2977SOL    HW2 8931   2.864   1.859   0.797
 2978SOL     OW 8932   3.281   3.009   0.858
 2978SOL    HW1 8933   3.218   2.948   0.907
 2978SOL    HW2 8934   3.253   3.015   0.762
 2979SOL     OW 8935   3.349   2.426   0.934
 2979SOL    HW1 8936   3.278   2.355   0.939
 2979SOL    HW2 8937   3.401   2.426   1.019
 2980SOL     OW 8938   3.738   2.656   0.378
 2980SOL    HW1 8939   3.781   2.597   0.447
 2980SOL    HW2 8940   3.672   2.602   0.325
 2981SOL     OW 8941   2.344   3.246   0.193
 2981SOL    HW1 8942   2.254   3.231   0.233
 2981SOL    HW2 8943   2.337   3.246   0.093
 2982SOL     OW 8944   3.575   3.161   0.694
 2982SOL    HW1 8945   3.667   3.172   0.655
 2982SOL    HW2 8946   3.531   3.250   0.699
 2983SOL     OW 8947   3.241   2.471   0.077
 2983SOL    HW1 8948   3.182   2.431   0.148
 2983SOL    HW2 8949   3.324   2.417   0.069
 2984SOL     OW 8950   3.594   3.142   1.568
 2984SOL    HW1 8951   3.675   3.084   1.580
 2984SOL    HW2 8952   3.618   3.236   1.589
 2985SOL     OW 8953   2.923   3.211   1.364
 2985SOL    HW1 8954   2.830   3.188   1.395
 2985SOL    HW2 8955   2.990   3.166   1.423
 2986SOL     OW 8956   3.461   3.527   1.651
 2986SOL    HW1 8957   3.454   3.547   1.554
 2986SOL    HW2 8958   3.543   3.471   1.668
 2987SOL     OW 8959   2.912   3.038   1.130
 2987SOL    HW1 8960   2.922   3.105   1.203
 2987SOL    HW2 8961   2.901   3.085   1.042
 2988SOL     OW 8962   3.483   2.945   1.107
 2988SOL    HW1 8963   3.489   3.029   1.161
 2988SOL    HW2 8964   3.420   2.959   1.031
 2989SOL     OW 8965   2.785   1.949   1.396
 2989SOL    HW1 8966   2.817   1.924   1.305
 2989SOL    HW2 8967   2.858   1.995   1.446
 2990SOL     OW 8968   2.811   2.964   1.717
 2990SOL    HW1 8969   2.713   2.969   1.737
 2990SOL    HW2 8970   2.827   2.891   1.650
 2991SOL     OW 8971   2.550   2.919   0.405
 2991SOL    HW1 8972   2.526   2.896   0.499
 2991SOL    HW2 8973   2.634   2.872   0.379
 2992SOL     OW 8974   2.264   2.650   1.258
 2992SOL    HW1 8975   2.336   2.665   1.325
 2992SOL    HW2 8976   2.225   2.558   1.270
 2993SOL     OW 8977   3.130   2.275   1.284
 2993SOL    HW1 8978   3.152   2.354   1.341
 2993SOL    HW2 8979   3.032   2.273   1.266
 2994SOL     OW 8980   1.923   3.406   1.344
 2994SOL    HW1 8981   1.869   3.472   1.293
 2994SOL    HW2 8982   2.018   3.437   1.350
 2995SOL     OW 8983   2.229   3.008   0.493
 2995SOL    HW1 8984   2.239   3.075   0.420
 2995SOL    HW2 8985   2.263   2.919   0.462
 2996SOL     OW 8986   2.440   2.393   0.867
 2996SOL    HW1 8987   2.430   2.464   0.798
 2996SOL    HW2 8988   2.509   2.420   0.934
 2997SOL     OW 8989   3.115   3.214   0.366
 2997SOL    HW1 8990   3.158   3.290   0.416
 2997SOL    HW2 8991   3.018   3.208   0.392
 2998SOL     OW 8992   3.191   3.292   1.145
 2998SOL    HW1 8993   3.239   3.328   1.226
 2998SOL    HW2 8994   3.116   3.232   1.175
 2999SOL     OW 8995   3.497   2.490   0.489
 2999SOL    HW1 8996   3.401   2.499   0.515
 2999SOL    HW2 8997   3.515   2.547   0.408
 3000SOL     OW 8998   2.199   3.407   1.287
 3000SOL    HW1 8999   2.208   3.355   1.202
 3000SOL    HW2 9000   2.290   3.427   1.323
 3001SOL     OW 9001   2.257   2.586   1.584
 3001SOL    HW1 9002   2.307   2.648   1.523
 3001SOL    HW2 9003   2.323   2.526   1.630
 3002SOL     OW 9004   3.489   2.686   1.683
 3002SOL    HW1 9005   3.389   2.689   1.675
 3002SOL    HW2 9006   3.530   2.728   1.603
 3003SOL     OW 9007   2.868   1.996   1.784
 3003SOL    HW1 9008   2.939   2.042   1.730
 3003SOL    HW2 9009   2.853   1.904   1.747
 3004SOL     OW 9010   2.309   1.875   1.744
 3004SOL    HW1 9011   2.270   1.825   1.667
 3004SOL    HW2 9012   2.248   1.949   1.771
 3005SOL     OW 9013   2.424   2.706   1.019
 3005SOL    HW1 9014   2.462   2.799   1.016
 3005SOL    HW2 9015   2.367   2.695   1.101
 3006SOL     OW 9016   3.183   2.697   1.067
 3006SOL    HW1 9017   3.108   2.688   1.002
 3006SOL    HW2 9018   3.238   2.614   1.066
 3007SOL     OW 9019   3.087   2.371   0.262
 3007SOL    HW1 9020   3.097   2.295   0.327
 3007SOL    HW2 9021   3.028   2.441   0.301
 3008SOL     OW 9022   2.151   2.061   1.230
 3008SOL    HW1 9023   2.118   2.075   1.323
 3008SOL    HW2 9024   2.142   1.964   1.206
 3009SOL     OW 9025   1.903   3.136   1.299
 3009SOL    HW1 9026   1.966   3.087   1.359
 3009SOL    HW2 9027   1.911   3.235   1.316
 3010SOL     OW 9028   2.617   2.500   1.069
 3010SOL    HW1 9029   2.685   2.465   1.005
 3010SOL    HW2 9030   2.574   2.582   1.031
 3011SOL     OW 9031   3.642   2.829   1.843
 3011SOL    HW1 9032   3.595   2.763   1.784
 3011SOL    HW2 9033   3.591   2.841   1.928
 3012SOL     OW 9034   2.216   1.922   0.628
 3012SOL    HW1 9035   2.179   2.012   0.649
 3012SOL    HW2 9036   2.207   1.862   0.707
 3013SOL     OW 9037   3.508   2.249   0.359
 3013SOL    HW1 9038   3.546   2.166   0.401
 3013SOL    HW2 9039   3.518   2.326   0.422
 3014SOL     OW 9040   2.899   2.638   0.956
 3014SOL    HW1 9041   2.896   2.650   1.055
 3014SOL    HW2 9042   2.852   2.554   0.931
 3015SOL     OW 9043   2.854   3.447   1.722
 3015SOL    HW1 9044   2.815   3.480   1.636
 3015SOL    HW2 9045   2.894   3.357   1.708
 3016SOL     OW 9046   3.700   3.388   1.633
 3016SOL    HW1 9047   3.730   3.412   1.541
 3016SOL    HW2 9048   3.777   3.396   1.697
 3017SOL     OW 9049   2.212   2.805   1.777
 3017SOL    HW1 9050   2.276   2.807   1.853
 3017SOL    HW2 9051   2.229   2.723   1.721
 3018SOL     OW 9052   3.351   2.148   0.163
 3018SOL    HW1 9053   3.352   2.048   0.157
 3018SOL    HW2 9054   3.407   2.177   0.240
 3019SOL     OW 9055   3.196   2.722   0.045
 3019SOL    HW1 9056   3.206   2.622   0.048
 3019SOL    HW2 9057   3.168   2.750   5.953
 3020SOL     OW 9058   2.931   3.218   0.901
 3020SOL    HW1 9059   2.924   3.147   0.832
 3020SOL    HW2 9060   2.980   3.297   0.863
 3021SOL     OW 9061   2.160   2.638   0.961
 3021SOL    HW1 9062   2.252   2.672   0.939
 3021SOL    HW2 9063   2.166   2.541   0.984
 3022SOL     OW 9064   2.193   2.373   0.997
 3022SOL    HW1 9065   2.151   2.284   0.980
 3022SOL    HW2 9066   2.274   2.383   0.939
 3023SOL     OW 9067   3.049   2.215   1.699
 3023SOL    HW1 9068   2.971   2.264   1.736
 3023SOL    HW2 9069   3.123   2.280   1.679
 3024SOL     OW 9070   3.016   2.055   1.495
 3024SOL    HW1 9071   3.029   2.119   1.572
 3024SOL    HW2 9072   3.051   2.097   1.411
 3025SOL     OW 9073   1.950   3.641   0.940
 3025SOL    HW1 9074   1.914   3.553   0.909
 3025SOL    HW2 9075   2.038   3.658   0.895
 3026SOL     OW 9076   2.355   3.452   0.886
 3026SOL    HW1 9077   2.431   3.510   0.914
 3026SOL    HW2 9078   2.389   3.375   0.832
 3027SOL     OW 9079   2.854   2.656   1.212
 3027SOL    HW1 9080   2.906   2.656   1.298
 3027SOL    HW2 9081   2.775   2.595   1.222
 3028SOL     OW 9082   1.902   2.419   1.130
 3028SOL    HW1 9083   1.983   2.438   1.075
 3028SOL    HW2 9084   1.930   2.393   1.222
 3029SOL     OW 9085   2.093   2.383   1.733
 3029SOL    HW1 9086   2.157   2.350   1.665
 3029SOL    HW2 9087   2.043   2.462   1.696
 3030SOL     OW 9088   3.235   2.785   1.658
 3030SOL    HW1 9089   3.266   2.880   1.658
 3030SOL    HW2 9090   3.231   2.752   1.563
 3031SOL     OW 9091   2.695   2.410   0.324
 3031SOL    HW1 9092   2.694   2.336   0.256
 3031SOL    HW2 9093   2.609   2.461   0.319
 3032SOL     OW 9094   3.498   2.433   1.162
 3032SOL    HW1 9095   3.491   2.395   1.254
 3032SOL    HW2 9096   3.593   2.433   1.133
 3033SOL     OW 9097   2.100   3.396   1.721
 3033SOL    HW1 9098   2.086   3.469   1.787
 3033SOL    HW2 9099   2.096   3.307   1.768
 3034SOL     OW 9100   2.581   2.315   1.256
 3034SOL    HW1 9101   2.520   2.237   1.239
 3034SOL    HW2 9102   2.575   2.379   1.180
 3035SOL     OW 9103   2.770   3.522   1.484
 3035SOL    HW1 9104   2.769   3.472   1.397
 3035SOL    HW2 9105   2.757   3.619   1.468
 3036SOL     OW 9106   2.330   2.325   0.198
 3036SOL    HW1 9107   2.411   2.382   0.211
 3036SOL    HW2 9108   2.249   2.375   0.229
 3037SOL     OW 9109   2.057   2.990   1.458
 3037SOL    HW1 9110   2.032   2.955   1.548
 3037SOL    HW2 9111   2.047   2.918   1.389
 3038SOL     OW 9112   3.152   2.905   1.237
 3038SOL    HW1 9113   3.178   2.838   1.167
 3038SOL    HW2 9114   3.058   2.935   1.222
 3039SOL     OW 9115   3.200   2.704   0.335
 3039SOL    HW1 9116   3.102   2.714   0.356
 3039SOL    HW2 9117   3.211   2.657   0.248
 3040SOL     OW 9118   3.650   3.561   1.153
 3040SOL    HW1 9119   3.720   3.586   1.087
 3040SOL    HW2 9120   3.608   3.474   1.126
 3041SOL     OW 9121   3.096   3.560   1.145
 3041SOL    HW1 9122   3.172   3.617   1.114
 3041SOL    HW2 9123   3.117   3.464   1.127
 3042SOL     OW 9124   1.970   3.124   1.037
 3042SOL    HW1 9125   1.954   3.120   1.136
 3042SOL    HW2 9126   1.896   3.077   0.989
 3043SOL     OW 9127   2.567   3.526   1.746
 3043SOL    HW1 9128   2.473   3.557   1.730
 3043SOL    HW2 9129   2.621   3.537   1.662
 3044SOL     OW 9130   2.811   1.958   0.130
 3044SOL    HW1 9131   2.877   1.967   0.055
 3044SOL    HW2 9132   2.850   1.903   0.204
 3045SOL     OW 9133   3.620   2.010   0.514
 3045SOL    HW1 9134   3.692   2.003   0.445
 3045SOL    HW2 9135   3.588   1.919   0.539
 3046SOL     OW 9136   3.208   3.452   0.460
 3046SOL    HW1 9137   3.281   3.457   0.392
 3046SOL    HW2 9138   3.183   3.545   0.489
 3047SOL     OW 9139   2.015   3.654   1.835
 3047SOL    HW1 9140   1.931   3.604   1.855
 3047SOL    HW2 9141   2.047   3.701   1.917
 3048SOL     OW 9142   3.133   2.765   0.654
 3048SOL    HW1 9143   3.206   2.707   0.690
 3048SOL    HW2 9144   3.172   2.833   0.593
 3049SOL     OW 9145   2.643   3.108   1.399
 3049SOL    HW1 9146   2.617   3.161   1.479
 3049SOL    HW2 9147   2.578   3.127   1.324
 3050SOL     OW 9148   2.539   3.461   0.148
 3050SOL    HW1 9149   2.556   3.437   0.052
 3050SOL    HW2 9150   2.483   3.390   0.191
 3051SOL     OW 9151   3.494   3.596   1.379
 3051SOL    HW1 9152   3.549   3.597   1.295
 3051SOL    HW2 9153   3.478   3.690   1.409
 3052SOL     OW 9154   3.732   2.031   0.952
 3052SOL    HW1 9155   3.748   1.934   0.936
 3052SOL    HW2 9156   3.637   2.054   0.929
 3053SOL     OW 9157   2.126   2.156   0.694
 3053SOL    HW1 9158   2.038   2.195   0.666
 3053SOL    HW2 9159   2.128   2.148   0.794
 3054SOL     OW 9160   3.106   3.436   0.016
 3054SOL    HW1 9161   3.076   3.353   0.063
 3054SOL    HW2 9162   3.042   3.458   5.942
 3055SOL     OW 9163   2.697   2.856   1.361
 3055SOL    HW1 9164   2.747   2.854   1.275
 3055SOL    HW2 9165   2.668   2.950   1.380
 3056SOL     OW 9166   2.751   2.756   0.275
 3056SOL    HW1 9167   2.826   2.790   0.218
 3056SOL    HW2 9168   2.776   2.667   0.313
 3057SOL     OW 9169   3.346   3.539   0.074
 3057SOL    HW1 9170   3.258   3.491   0.072
 3057SOL    HW2 9171   3.388   3.535   5.983
 3058SOL     OW 9172   2.220   3.181   1.526
 3058SOL    HW1 9173   2.207   3.259   1.464
 3058SOL    HW2 9174   2.157   3.108   1.502
 3059SOL     OW 9175   3.487   3.160   1.287
 3059SOL    HW1 9176   3.541   3.142   1.370
 3059SOL    HW2 9177   3.417   3.229   1.308
 3060SOL     OW 9178   2.875   3.007   0.726
 3060SOL    HW1 9179   2.825   2.931   0.767
 3060SOL    HW2 9180   2.934   2.973   0.653
 3061SOL     OW 9181   2.846   2.101   0.985
 3061SOL    HW1 9182   2.823   2.078   0.890
 3061SOL    HW2 9183   2.868   2.018   1.035
 3062SOL     OW 9184   2.490   3.333   0.444
 3062SOL    HW1 9185   2.537   3.273   0.378
 3062SOL    HW2 9186   2.407   3.371   0.401
 3063SOL     OW 9187   3.585   2.259   1.356
 3063SOL    HW1 9188   3.659   2.322   1.380
 3063SOL    HW2 9189   3.619   2.194   1.288
 3064SOL     OW 9190   2.101   3.214   0.297
 3064SOL    HW1 9191   2.025   3.150   0.289
 3064SOL    HW2 9192   2.103   3.253   0.389
 3065SOL     OW 9193   1.984   2.930   1.709
 3065SOL    HW1 9194   1.907   2.891   1.759
 3065SOL    HW2 9195   2.068   2.884   1.738
 3066SOL     OW 9196   2.545   2.067   1.479
 3066SOL    HW1 9197   2.632   2.035   1.440
 3066SOL    HW2 9198   2.563   2.112   1.566
 3067SOL     OW 9199   1.982   2.244   0.031
 3067SOL    HW1 9200   1.967   2.154   5.990
 3067SOL    HW2 9201   1.986   2.313   5.958
 3068SOL     OW 9202   3.293   2.719   1.384
 3068SOL    HW1 9203   3.230   2.781   1.337
 3068SOL    HW2 9204   3.382   2.721   1.338
 3069SOL     OW 9205   1.964   1.997   0.332
 3069SOL    HW1 9206   1.912   2.042   0.260
 3069SOL    HW2 9207   2.062   2.000   0.310
 3070SOL     OW 9208   2.992   3.222   0.134
 3070SOL    HW1 9209   2.916   3.157   0.137
 3070SOL    HW2 9210   3.051   3.209   0.213
 3071SOL     OW 9211   2.480   2.662   1.438
 3071SOL    HW1 9212   2.533   2.742   1.409
 3071SOL    HW2 9213   2.543   2.589   1.467
 3072SOL     OW 9214   3.342   3.649   0.996
 3072SOL    HW1 9215   3.338   3.709   0.916
 3072SOL    HW2 9216   3.438   3.629   1.018
 3073SOL     OW 9217   2.582   2.411   1.707
 3073SOL    HW1 9218   2.603   2.473   1.782
 3073SOL    HW2 9219   2.605   2.317   1.733
 3074SOL     OW 9220   3.333   3.046   1.630
 3074SOL    HW1 9221   3.307   3.064   1.725
 3074SOL    HW2 9222   3.420   3.093   1.610
 3075SOL     OW 9223   2.236   3.571   1.543
 3075SOL    HW1 9224   2.155   3.628   1.531
 3075SOL    HW2 9225   2.212   3.486   1.589
 3076SOL     OW 9226   3.533   2.718   1.244
 3076SOL    HW1 9227   3.524   2.638   1.185
 3076SOL    HW2 9228   3.523   2.801   1.190
 3077SOL     OW 9229   3.071   2.189   0.452
 3077SOL    HW1 9230   3.137   2.119   0.425
 3077SOL    HW2 9231   3.100   2.232   0.537
 3078SOL     OW 9232   2.399   2.586   0.683
 3078SOL    HW1 9233   2.445   2.675   0.683
 3078SOL    HW2 9234   2.334   2.583   0.607
 3079SOL     OW 9235   3.598   2.247   1.659
 3079SOL    HW1 9236   3.610   2.234   1.560
 3079SOL    HW2 9237   3.524   2.189   1.691
 3080SOL     OW 9238   3.605   2.819   1.477
 3080SOL    HW1 9239   3.611   2.915   1.452
 3080SOL    HW2 9240   3.589   2.764   1.394
 3081SOL     OW 9241   2.690   3.271   5.999
 3081SOL    HW1 9242   2.714   3.233   0.089
 3081SOL    HW2 9243   2.751   3.348   5.979
 3082SOL     OW 9244   2.542   3.667   0.939
 3082SOL    HW1 9245   2.495   3.755   0.945
 3082SOL    HW2 9246   2.631   3.681   0.895
 3083SOL     OW 9247   2.723   2.827   0.874
 3083SOL    HW1 9248   2.801   2.767   0.894
 3083SOL    HW2 9249   2.697   2.876   0.958
 3084SOL     OW 9250   2.957   2.859   0.088
 3084SOL    HW1 9251   2.893   2.830   0.017
 3084SOL    HW2 9252   3.046   2.816   0.073
 3085SOL     OW 9253   3.714   3.404   0.881
 3085SOL    HW1 9254   3.644   3.394   0.811
 3085SOL    HW2 9255   3.688   3.350   0.962
 3086SOL     OW 9256   2.057   3.136   1.879
 3086SOL    HW1 9257   2.019   3.053   1.837
 3086SOL    HW2 9258   2.040   3.134   1.977
 3087SOL     OW 9259   1.968   3.079   0.629
 3087SOL    HW1 9260   1.978   3.052   0.725
 3087SOL    HW2 9261   2.043   3.040   0.576
 3088SOL     OW 9262   2.582   3.247   1.611
 3088SOL    HW1 9263   2.489   3.233   1.645
 3088SOL    HW2 9264   2.629   3.314   1.668
 3089SOL     OW 9265   3.682   2.033   1.230
 3089SOL    HW1 9266   3.682   1.938   1.263
 3089SOL    HW2 9267   3.705   2.034   1.132
 3090SOL     OW 9268   2.278   2.285   0.523
 3090SOL    HW1 9269   2.314   2.210   0.468
 3090SOL    HW2 9270   2.214   2.249   0.591
 3091SOL     OW 9271   3.548   3.325   1.088
 3091SOL    HW1 9272   3.467   3.310   1.031
 3091SOL    HW2 9273   3.548   3.260   1.163
 3092SOL     OW 9274   2.168   2.403   1.272
 3092SOL    HW1 9275   2.234   2.361   1.334
 3092SOL    HW2 9276   2.187   2.374   1.178
 3093SOL     OW 9277   2.668   3.432   0.688
 3093SOL    HW1 9278   2.667   3.459   0.592
 3093SOL    HW2 9279   2.581   3.388   0.711
 3094SOL     OW 9280   3.264   2.090   1.131
 3094SOL    HW1 9281   3.350   2.059   1.171
 3094SOL    HW2 9282   3.214   2.145   1.198
 3095SOL     OW 9283   2.911   1.887   1.147
 3095SOL    HW1 9284   2.835   1.832   1.112
 3095SOL    HW2 9285   2.991   1.828   1.161
 3096SOL     OW 9286   2.674   3.154   0.298
 3096SOL    HW1 9287   2.608   3.086   0.330
 3096SOL    HW2 9288   2.730   3.184   0.376
 3097SOL     OW 9289   2.503   3.417   1.272
 3097SOL    HW1 9290   2.488   3.494   1.333
 3097SOL    HW2 9291   2.600   3.414   1.246
 3098SOL     OW 9292   3.229   1.905   0.171
 3098SOL    HW1 9293   3.278   1.843   0.110
 3098SOL    HW2 9294   3.147   1.860   0.206
 3099SOL     OW 9295   3.155   2.295   0.685
 3099SOL    HW1 9296   3.114   2.387   0.683
 3099SOL    HW2 9297   3.160   2.263   0.780
 3100SOL     OW 9298   3.481   2.076   0.893
 3100SOL    HW1 9299   3.407   2.083   0.960
 3100SOL    HW2 9300   3.478   2.155   0.832
 3101SOL     OW 9301   1.907   3.004   0.320
 3101SOL    HW1 9302   1.979   2.960   0.267
 3101SOL    HW2 9303   1.886   2.949   0.400
 3102SOL     OW 9304   2.755   3.524   0.351
 3102SOL    HW1 9305   2.689   3.519   0.276
 3102SOL    HW2 9306   2.736   3.603   0.408
 3103SOL     OW 9307   2.115   2.505   1.998
 3103SOL    HW1 9308   2.028   2.526   2.043
 3103SOL    HW2 9309   2.097   2.469   1.906
 3104SOL     OW 9310   2.112   2.132   2.826
 3104SOL    HW1 9311   2.146   2.105   2.917
 3104SOL    HW2 9312   2.015   2.108   2.819
 3105SOL     OW 9313   1.887   2.252   2.494
 3105SOL    HW1 9314   1.814   2.283   2.554
 3105SOL    HW2 9315   1.851   2.183   2.431
 3106SOL     OW 9316   2.394   3.168   3.032
 3106SOL    HW1 9317   2.316   3.190   2.973
 3106SOL    HW2 9318   2.426   3.251   3.077
 3107SOL     OW 9319   3.425   3.382   2.575
 3107SOL    HW1 9320   3.381   3.343   2.655
 3107SOL    HW2 9321   3.359   3.390   2.500
 3108SOL     OW 9322   2.985   2.559   2.492
 3108SOL    HW1 9323   3.041   2.640   2.507
 3108SOL    HW2 9324   2.909   2.559   2.557
 3109SOL     OW 9325   3.557   2.491   2.101
 3109SOL    HW1 9326   3.565   2.489   2.002
 3109SOL    HW2 9327   3.524   2.403   2.134
 3110SOL     OW 9328   2.600   3.030   2.914
 3110SOL    HW1 9329   2.513   3.053   2.956
 3110SOL    HW2 9330   2.638   3.110   2.868
 3111SOL     OW 9331   2.702   2.679   3.656
 3111SOL    HW1 9332   2.700   2.771   3.696
 3111SOL    HW2 9333   2.725   2.686   3.559
 3112SOL     OW 9334   2.523   2.845   2.558
 3112SOL    HW1 9335   2.599   2.849   2.623
 3112SOL    HW2 9336   2.455   2.915   2.581
 3113SOL     OW 9337   2.555   3.013   3.662
 3113SOL    HW1 9338   2.609   3.097   3.669
 3113SOL    HW2 9339   2.461   3.037   3.638
 3114SOL     OW 9340   2.201   3.298   2.889
 3114SOL    HW1 9341   2.113   3.270   2.851
 3114SOL    HW2 9342   2.243   3.366   2.829
 3115SOL     OW 9343   3.331   3.379   3.211
 3115SOL    HW1 9344   3.397   3.453   3.226
 3115SOL    HW2 9345   3.252   3.393   3.271
 3116SOL     OW 9346   2.299   2.288   3.337
 3116SOL    HW1 9347   2.382   2.233   3.326
 3116SOL    HW2 9348   2.223   2.229   3.365
 3117SOL     OW 9349   3.524   2.335   2.631
 3117SOL    HW1 9350   3.456   2.372   2.568
 3117SOL    HW2 9351   3.559   2.408   2.689
 3118SOL     OW 9352   2.090   3.565   2.358
 3118SOL    HW1 9353   2.125   3.651   2.396
 3118SOL    HW2 9354   2.143   3.540   2.278
 3119SOL     OW 9355   2.965   3.205   3.554
 3119SOL    HW1 9356   3.021   3.206   3.637
 3119SOL    HW2 9357   2.905   3.124   3.556
 3120SOL     OW 9358   2.119   3.298   2.407
 3120SOL    HW1 9359   2.094   3.395   2.408
 3120SOL    HW2 9360   2.042   3.243   2.442
 3121SOL     OW 9361   2.100   2.952   2.733
 3121SOL    HW1 9362   2.101   2.859   2.770
 3121SOL    HW2 9363   2.065   3.015   2.802
 3122SOL     OW 9364   2.483   3.623   3.308
 3122SOL    HW1 9365   2.395   3.595   3.346
 3122SOL    HW2 9366   2.499   3.719   3.328
 3123SOL     OW 9367   2.456   2.803   2.020
 3123SOL    HW1 9368   2.475   2.864   1.944
 3123SOL    HW2 9369   2.509   2.831   2.100
 3124SOL     OW 9370   3.511   2.002   3.338
 3124SOL    HW1 9371   3.513   2.092   3.294
 3124SOL    HW2 9372   3.458   2.007   3.423
 3125SOL     OW 9373   1.982   2.505   2.413
 3125SOL    HW1 9374   1.958   2.411   2.436
 3125SOL    HW2 9375   1.978   2.561   2.495
 3126SOL     OW 9376   3.732   3.600   2.206
 3126SOL    HW1 9377   3.789   3.577   2.285
 3126SOL    HW2 9378   3.739   3.698   2.187
 3127SOL     OW 9379   1.852   3.472   1.969
 3127SOL    HW1 9380   1.847   3.376   1.997
 3127SOL    HW2 9381   1.862   3.529   2.051
 3128SOL     OW 9382   3.535   2.797   2.498
 3128SOL    HW1 9383   3.615   2.750   2.460
 3128SOL    HW2 9384   3.509   2.872   2.438
 3129SOL     OW 9385   3.510   3.026   2.346
 3129SOL    HW1 9386   3.593   3.003   2.297
 3129SOL    HW2 9387   3.533   3.062   2.436
 3130SOL     OW 9388   1.994   2.601   3.451
 3130SOL    HW1 9389   2.094   2.601   3.451
 3130SOL    HW2 9390   1.960   2.694   3.442
 3131SOL     OW 9391   2.457   3.241   2.577
 3131SOL    HW1 9392   2.398   3.161   2.588
 3131SOL    HW2 9393   2.452   3.274   2.483
 3132SOL     OW 9394   3.163   3.089   3.314
 3132SOL    HW1 9395   3.171   3.030   3.233
 3132SOL    HW2 9396   3.238   3.069   3.377
 3133SOL     OW 9397   2.679   1.836   2.330
 3133SOL    HW1 9398   2.722   1.926   2.332
 3133SOL    HW2 9399   2.580   1.846   2.343
 3134SOL     OW 9400   2.040   2.808   3.126
 3134SOL    HW1 9401   2.119   2.761   3.085
 3134SOL    HW2 9402   1.958   2.753   3.113
 3135SOL     OW 9403   3.435   2.824   2.052
 3135SOL    HW1 9404   3.355   2.775   2.086
 3135SOL    HW2 9405   3.448   2.908   2.106
 3136SOL     OW 9406   3.068   3.680   3.491
 3136SOL    HW1 9407   3.034   3.737   3.416
 3136SOL    HW2 9408   3.091   3.589   3.455
 3137SOL     OW 9409   2.163   2.101   3.688
 3137SOL    HW1 9410   2.199   2.193   3.677
 3137SOL    HW2 9411   2.070   2.106   3.726
 3138SOL     OW 9412   3.323   3.278   2.787
 3138SOL    HW1 9413   3.265   3.295   2.867
 3138SOL    HW2 9414   3.335   3.179   2.775
 3139SOL     OW 9415   3.511   3.617   2.452
 3139SOL    HW1 9416   3.473   3.592   2.363
 3139SOL    HW2 9417   3.503   3.539   2.514
 3140SOL     OW 9418   2.483   2.558   2.154
 3140SOL    HW1 9419   2.483   2.635   2.091
 3140SOL    HW2 9420   2.411   2.570   2.223
 3141SOL     OW 9421   3.165   2.227   2.789
 3141SOL    HW1 9422   3.066   2.209   2.788
 3141SOL    HW2 9423   3.208   2.173   2.861
 3142SOL     OW 9424   3.451   3.533   2.192
 3142SOL    HW1 9425   3.547   3.556   2.205
 3142SOL    HW2 9426   3.433   3.520   2.095
 3143SOL     OW 9427   2.679   2.464   3.323
 3143SOL    HW1 9428   2.647   2.434   3.413
 3143SOL    HW2 9429   2.632   2.412   3.252
 3144SOL     OW 9430   3.248   2.386   3.551
 3144SOL    HW1 9431   3.224   2.423   3.640
 3144SOL    HW2 9432   3.313   2.311   3.562
 3145SOL     OW 9433   2.838   2.734   3.426
 3145SOL    HW1 9434   2.899   2.663   3.391
 3145SOL    HW2 9435   2.793   2.780   3.349
 3146SOL     OW 9436   2.854   2.226   3.107
 3146SOL    HW1 9437   2.771   2.278   3.128
 3146SOL    HW2 9438   2.842   2.181   3.018
 3147SOL     OW 9439   2.920   2.555   2.223
 3147SOL    HW1 9440   2.940   2.563   2.320
 3147SOL    HW2 9441   2.837   2.501   2.210
 3148SOL     OW 9442   1.954   2.667   2.632
 3148SOL    HW1 9443   2.034   2.650   2.689
 3148SOL    HW2 9444   1.899   2.739   2.672
 3149SOL     OW 9445   1.999   3.679   3.432
 3149SOL    HW1 9446   2.008   3.671   3.531
 3149SOL    HW2 9447   1.938   3.754   3.409
 3150SOL     OW 9448   2.734   2.199   2.017
 3150SOL    HW1 9449   2.778   2.258   1.950
 3150SOL    HW2 9450   2.772   2.106   2.010
 3151SOL     OW 9451   3.570   2.476   3.696
 3151SOL    HW1 9452   3.535   2.563   3.661
 3151SOL    HW2 9453   3.584   2.412   3.619
 3152SOL     OW 9454   3.237   3.023   2.425
 3152SOL    HW1 9455   3.322   3.015   2.372
 3152SOL    HW2 9456   3.167   3.064   2.368
 3153SOL     OW 9457   2.380   2.023   2.778
 3153SOL    HW1 9458   2.403   2.055   2.870
 3153SOL    HW2 9459   2.372   2.102   2.717
 3154SOL     OW 9460   2.890   3.346   2.313
 3154SOL    HW1 9461   2.825   3.403   2.263
 3154SOL    HW2 9462   2.918   3.394   2.396
 3155SOL     OW 9463   2.206   3.660   2.721
 3155SOL    HW1 9464   2.263   3.577   2.725
 3155SOL    HW2 9465   2.263   3.740   2.739
 3156SOL     OW 9466   3.677   2.924   2.764
 3156SOL    HW1 9467   3.643   2.970   2.682
 3156SOL    HW2 9468   3.608   2.928   2.836
 3157SOL     OW 9469   3.121   3.420   3.390
 3157SOL    HW1 9470   3.143   3.326   3.416
 3157SOL    HW2 9471   3.022   3.428   3.377
 3158SOL     OW 9472   2.172   2.849   2.103
 3158SOL    HW1 9473   2.271   2.849   2.092
 3158SOL    HW2 9474   2.136   2.759   2.078
 3159SOL     OW 9475   3.312   2.603   2.595
 3159SOL    HW1 9476   3.310   2.545   2.676
 3159SOL    HW2 9477   3.402   2.647   2.587
 3160SOL     OW 9478   2.302   3.129   3.624
 3160SOL    HW1 9479   2.289   3.146   3.526
 3160SOL    HW2 9480   2.212   3.119   3.668
 3161SOL     OW 9481   3.037   3.619   2.089
 3161SOL    HW1 9482   2.947   3.592   2.123
 3161SOL    HW2 9483   3.055   3.571   2.003
 3162SOL     OW 9484   2.065   2.118   3.373
 3162SOL    HW1 9485   1.985   2.169   3.339
 3162SOL    HW2 9486   2.061   2.113   3.473
 3163SOL     OW 9487   3.451   3.232   1.994
 3163SOL    HW1 9488   3.442   3.328   1.965
 3163SOL    HW2 9489   3.386   3.176   1.943
 3164SOL     OW 9490   2.335   3.581   2.207
 3164SOL    HW1 9491   2.371   3.658   2.259
 3164SOL    HW2 9492   2.402   3.554   2.137
 3165SOL     OW 9493   3.232   1.994   2.281
 3165SOL    HW1 9494   3.228   1.973   2.184
 3165SOL    HW2 9495   3.328   2.007   2.308
 3166SOL     OW 9496   2.138   3.675   3.052
 3166SOL    HW1 9497   2.146   3.588   3.100
 3166SOL    HW2 9498   2.123   3.659   2.954
 3167SOL     OW 9499   2.799   3.576   2.762
 3167SOL    HW1 9500   2.852   3.512   2.818
 3167SOL    HW2 9501   2.754   3.527   2.688
 3168SOL     OW 9502   2.246   2.552   2.320
 3168SOL    HW1 9503   2.260   2.455   2.339
 3168SOL    HW2 9504   2.152   2.576   2.341
 3169SOL     OW 9505   3.374   2.113   3.605
 3169SOL    HW1 9506   3.380   2.138   3.701
 3169SOL    HW2 9507   3.295   2.052   3.592
 3170SOL     OW 9508   2.466   1.957   1.929
 3170SOL    HW1 9509   2.555   1.911   1.925
 3170SOL    HW2 9510   2.410   1.930   1.851
 3171SOL     OW 9511   2.614   2.136   3.614
 3171SOL    HW1 9512   2.702   2.090   3.629
 3171SOL    HW2 9513   2.555   2.120   3.694
 3172SOL     OW 9514   2.770   3.399   3.052
 3172SOL    HW1 9515   2.731   3.351   2.973
 3172SOL    HW2 9516   2.839   3.342   3.095
 3173SOL     OW 9517   3.203   2.463   3.301
 3173SOL    HW1 9518   3.232   2.440   3.394
 3173SOL    HW2 9519   3.235   2.554   3.277
 3174SOL     OW 9520   2.638   3.256   2.780
 3174SOL    HW1 9521   2.724   3.285   2.740
 3174SOL    HW2 9522   2.575   3.228   2.707
 3175SOL     OW 9523   2.785   2.370   2.770
 3175SOL    HW1 9524   2.741   2.346   2.684
 3175SOL    HW2 9525   2.818   2.287   2.815
 3176SOL     OW 9526   2.430   1.932   2.339
 3176SOL    HW1 9527   2.349   1.930   2.397
 3176SOL    HW2 9528   2.436   2.020   2.293
 3177SOL     OW 9529   3.268   3.053   1.882
 3177SOL    HW1 9530   3.295   2.959   1.907
 3177SOL    HW2 9531   3.202   3.086   1.949
 3178SOL     OW 9532   2.152   1.907   2.060
 3178SOL    HW1 9533   2.202   1.967   1.998
 3178SOL    HW2 9534   2.216   1.843   2.103
 3179SOL     OW 9535   2.799   2.080   2.333
 3179SOL    HW1 9536   2.750   2.130   2.262
 3179SOL    HW2 9537   2.893   2.114   2.338
 3180SOL     OW 9538   2.947   2.524   3.300
 3180SOL    HW1 9539   2.866   2.464   3.304
 3180SOL    HW2 9540   3.029   2.468   3.297
 3181SOL     OW 9541   3.063   3.416   2.654
 3181SOL    HW1 9542   3.096   3.455   2.568
 3181SOL    HW2 9543   3.137   3.412   2.721
 3182SOL     OW 9544   2.317   3.009   2.602
 3182SOL    HW1 9545   2.236   2.982   2.655
 3182SOL    HW2 9546   2.295   3.006   2.505
 3183SOL     OW 9547   3.163   3.657   2.443
 3183SOL    HW1 9548   3.184   3.722   2.371
 3183SOL    HW2 9549   3.106   3.701   2.512
 3184SOL     OW 9550   2.881   2.377   1.820
 3184SOL    HW1 9551   2.836   2.466   1.812
 3184SOL    HW2 9552   2.936   2.376   1.903
 3185SOL     OW 9553   1.940   2.398   3.286
 3185SOL    HW1 9554   2.022   2.385   3.231
 3185SOL    HW2 9555   1.951   2.480   3.343
 3186SOL     OW 9556   2.415   2.100   3.049
 3186SOL    HW1 9557   2.475   2.031   3.091
 3186SOL    HW2 9558   2.321   2.082   3.075
 3187SOL     OW 9559   2.709   2.275   2.527
 3187SOL    HW1 9560   2.665   2.329   2.454
 3187SOL    HW2 9561   2.756   2.197   2.486
 3188SOL     OW 9562   2.830   1.931   2.601
 3188SOL    HW1 9563   2.802   1.898   2.511
 3188SOL    HW2 9564   2.853   1.853   2.660
 3189SOL     OW 9565   3.312   2.992   2.749
 3189SOL    HW1 9566   3.223   2.951   2.769
 3189SOL    HW2 9567   3.333   2.979   2.652
 3190SOL     OW 9568   3.328   2.446   2.812
 3190SOL    HW1 9569   3.282   2.358   2.806
 3190SOL    HW2 9570   3.399   2.442   2.883
 3191SOL     OW 9571   3.754   2.674   2.221
 3191SOL    HW1 9572   3.783   2.616   2.297
 3191SOL    HW2 9573   3.687   2.625   2.165
 3192SOL     OW 9574   2.354   3.269   2.055
 3192SOL    HW1 9575   2.261   3.253   2.088
 3192SOL    HW2 9576   2.361   3.242   1.959
 3193SOL     OW 9577   3.578   3.152   2.575
 3193SOL    HW1 9578   3.666   3.167   2.530
 3193SOL    HW2 9579   3.522   3.235   2.566
 3194SOL     OW 9580   3.235   2.454   1.951
 3194SOL    HW1 9581   3.162   2.412   2.006
 3194SOL    HW2 9582   3.324   2.424   1.986
 3195SOL     OW 9583   2.414   2.148   2.180
 3195SOL    HW1 9584   2.420   2.077   2.110
 3195SOL    HW2 9585   2.388   2.234   2.137
 3196SOL     OW 9586   3.601   3.142   3.436
 3196SOL    HW1 9587   3.676   3.078   3.452
 3196SOL    HW2 9588   3.635   3.236   3.442
 3197SOL     OW 9589   2.919   3.205   3.225
 3197SOL    HW1 9590   2.826   3.187   3.257
 3197SOL    HW2 9591   2.985   3.162   3.288
 3198SOL     OW 9592   3.468   3.529   3.517
 3198SOL    HW1 9593   3.457   3.545   3.419
 3198SOL    HW2 9594   3.548   3.471   3.532
 3199SOL     OW 9595   2.907   3.034   2.987
 3199SOL    HW1 9596   2.908   3.098   3.063
 3199SOL    HW2 9597   2.898   3.084   2.901
 3200SOL     OW 9598   3.497   2.956   2.957
 3200SOL    HW1 9599   3.490   3.032   3.022
 3200SOL    HW2 9600   3.426   2.965   2.888
 3201SOL     OW 9601   2.780   1.944   3.287
 3201SOL    HW1 9602   2.794   1.914   3.193
 3201SOL    HW2 9603   2.860   1.995   3.318
 3202SOL     OW 9604   2.812   2.969   3.576
 3202SOL    HW1 9605   2.714   2.972   3.595
 3202SOL    HW2 9606   2.830   2.896   3.510
 3203SOL     OW 9607   2.569   2.927   2.266
 3203SOL    HW1 9608   2.553   2.906   2.362
 3203SOL    HW2 9609   2.653   2.882   2.235
 3204SOL     OW 9610   2.274   2.655   3.114
 3204SOL    HW1 9611   2.347   2.666   3.183
 3204SOL    HW2 9612   2.229   2.567   3.127
 3205SOL     OW 9613   3.136   2.282   3.127
 3205SOL    HW1 9614   3.162   2.357   3.187
 3205SOL    HW2 9615   3.037   2.286   3.109
 3206SOL     OW 9616   1.928   3.410   3.220
 3206SOL    HW1 9617   1.875   3.473   3.162
 3206SOL    HW2 9618   2.024   3.436   3.217
 3207SOL     OW 9619   2.246   3.004   2.347
 3207SOL    HW1 9620   2.254   3.073   2.276
 3207SOL    HW2 9621   2.248   2.913   2.306
 3208SOL     OW 9622   2.444   2.389   2.729
 3208SOL    HW1 9623   2.439   2.457   2.656
 3208SOL    HW2 9624   2.507   2.419   2.800
 3209SOL     OW 9625   3.115   3.226   2.227
 3209SOL    HW1 9626   3.173   3.289   2.278
 3209SOL    HW2 9627   3.019   3.251   2.240
 3210SOL     OW 9628   3.185   3.300   3.005
 3210SOL    HW1 9629   3.237   3.329   3.085
 3210SOL    HW2 9630   3.118   3.231   3.032
 3211SOL     OW 9631   3.497   2.505   2.374
 3211SOL    HW1 9632   3.407   2.525   2.413
 3211SOL    HW2 9633   3.503   2.545   2.282
 3212SOL     OW 9634   2.192   3.399   3.153
 3212SOL    HW1 9635   2.200   3.353   3.065
 3212SOL    HW2 9636   2.284   3.418   3.189
 3213SOL     OW 9637   2.257   2.584   3.444
 3213SOL    HW1 9638   2.305   2.641   3.378
 3213SOL    HW2 9639   2.324   2.526   3.491
 3214SOL     OW 9640   3.490   2.687   3.544
 3214SOL    HW1 9641   3.390   2.687   3.534
 3214SOL    HW2 9642   3.531   2.730   3.463
 3215SOL     OW 9643   2.871   1.998   3.646
 3215SOL    HW1 9644   2.941   2.053   3.600
 3215SOL    HW2 9645   2.858   1.912   3.596
 3216SOL     OW 9646   2.314   1.863   3.614
 3216SOL    HW1 9647   2.277   1.819   3.532
 3216SOL    HW2 9648   2.260   1.944   3.636
 3217SOL     OW 9649   2.410   2.717   2.873
 3217SOL    HW1 9650   2.449   2.809   2.870
 3217SOL    HW2 9651   2.364   2.703   2.961
 3218SOL     OW 9652   3.187   2.689   2.921
 3218SOL    HW1 9653   3.114   2.686   2.853
 3218SOL    HW2 9654   3.246   2.609   2.912
 3219SOL     OW 9655   3.045   2.355   2.096
 3219SOL    HW1 9656   3.060   2.279   2.160
 3219SOL    HW2 9657   3.013   2.435   2.147
 3220SOL     OW 9658   2.152   2.068   3.105
 3220SOL    HW1 9659   2.123   2.083   3.200
 3220SOL    HW2 9660   2.144   1.971   3.083
 3221SOL     OW 9661   1.920   3.139   3.161
 3221SOL    HW1 9662   1.972   3.082   3.224
 3221SOL    HW2 9663   1.933   3.235   3.185
 3222SOL     OW 9664   2.616   2.506   2.927
 3222SOL    HW1 9665   2.685   2.466   2.866
 3222SOL    HW2 9666   2.582   2.592   2.888
 3223SOL     OW 9667   3.643   2.835   3.710
 3223SOL    HW1 9668   3.599   2.767   3.651
 3223SOL    HW2 9669   3.592   2.844   3.795
 3224SOL     OW 9670   2.203   1.920   2.467
 3224SOL    HW1 9671   2.160   2.007   2.490
 3224SOL    HW2 9672   2.205   1.861   2.548
 3225SOL     OW 9673   3.446   2.266   2.242
 3225SOL    HW1 9674   3.487   2.189   2.290
 3225SOL    HW2 9675   3.435   2.343   2.304
 3226SOL     OW 9676   2.898   2.639   2.815
 3226SOL    HW1 9677   2.899   2.652   2.914
 3226SOL    HW2 9678   2.853   2.552   2.794
 3227SOL     OW 9679   2.857   3.448   3.579
 3227SOL    HW1 9680   2.816   3.483   3.495
 3227SOL    HW2 9681   2.891   3.355   3.563
 3228SOL     OW 9682   3.704   3.390   3.490
 3228SOL    HW1 9683   3.736   3.421   3.400
 3228SOL    HW2 9684   3.780   3.393   3.555
 3229SOL     OW 9685   2.209   2.803   3.641
 3229SOL    HW1 9686   2.274   2.809   3.717
 3229SOL    HW2 9687   2.231   2.723   3.585
 3230SOL     OW 9688   3.409   2.140   2.007
 3230SOL    HW1 9689   3.356   2.055   2.012
 3230SOL    HW2 9690   3.419   2.178   2.098
 3231SOL     OW 9691   3.168   2.709   1.915
 3231SOL    HW1 9692   3.186   2.611   1.920
 3231SOL    HW2 9693   3.186   2.742   1.822
 3232SOL     OW 9694   2.923   3.214   2.770
 3232SOL    HW1 9695   2.917   3.142   2.701
 3232SOL    HW2 9696   2.972   3.293   2.731
 3233SOL     OW 9697   2.159   2.636   2.814
 3233SOL    HW1 9698   2.251   2.672   2.800
 3233SOL    HW2 9699   2.164   2.540   2.838
 3234SOL     OW 9700   2.197   2.377   2.856
 3234SOL    HW1 9701   2.157   2.286   2.840
 3234SOL    HW2 9702   2.278   2.388   2.799
 3235SOL     OW 9703   3.047   2.213   3.560
 3235SOL    HW1 9704   2.971   2.264   3.600
 3235SOL    HW2 9705   3.122   2.276   3.541
 3236SOL     OW 9706   3.014   2.053   3.350
 3236SOL    HW1 9707   3.028   2.116   3.426
 3236SOL    HW2 9708   3.047   2.096   3.265
 3237SOL     OW 9709   1.838   3.202   2.083
 3237SOL    HW1 9710   1.742   3.210   2.056
 3237SOL    HW2 9711   1.859   3.107   2.106
 3238SOL     OW 9712   1.955   3.640   2.809
 3238SOL    HW1 9713   1.905   3.567   2.762
 3238SOL    HW2 9714   2.044   3.654   2.765
 3239SOL     OW 9715   2.364   3.454   2.750
 3239SOL    HW1 9716   2.442   3.512   2.768
 3239SOL    HW2 9717   2.392   3.376   2.694
 3240SOL     OW 9718   2.853   2.656   3.071
 3240SOL    HW1 9719   2.910   2.658   3.153
 3240SOL    HW2 9720   2.773   2.599   3.089
 3241SOL     OW 9721   1.903   2.418   2.989
 3241SOL    HW1 9722   1.983   2.430   2.930
 3241SOL    HW2 9723   1.933   2.393   3.081
 3242SOL     OW 9724   2.098   2.385   3.593
 3242SOL    HW1 9725   2.165   2.365   3.521
 3242SOL    HW2 9726   2.041   2.463   3.564
 3243SOL     OW 9727   3.234   2.781   3.513
 3243SOL    HW1 9728   3.264   2.877   3.516
 3243SOL    HW2 9729   3.231   2.750   3.418
 3244SOL     OW 9730   2.702   2.414   2.181
 3244SOL    HW1 9731   2.698   2.333   2.122
 3244SOL    HW2 9732   2.614   2.461   2.177
 3245SOL     OW 9733   3.497   2.445   3.031
 3245SOL    HW1 9734   3.478   2.419   3.125
 3245SOL    HW2 9735   3.595   2.432   3.012
 3246SOL     OW 9736   2.099   3.394   3.594
 3246SOL    HW1 9737   2.086   3.468   3.660
 3246SOL    HW2 9738   2.089   3.306   3.640
 3247SOL     OW 9739   2.570   2.325   3.123
 3247SOL    HW1 9740   2.514   2.244   3.102
 3247SOL    HW2 9741   2.571   2.386   3.044
 3248SOL     OW 9742   2.763   3.523   3.344
 3248SOL    HW1 9743   2.764   3.471   3.259
 3248SOL    HW2 9744   2.756   3.620   3.324
 3249SOL     OW 9745   2.359   2.361   2.010
 3249SOL    HW1 9746   2.420   2.421   2.060
 3249SOL    HW2 9747   2.267   2.398   2.011
 3250SOL     OW 9748   2.057   2.986   3.323
 3250SOL    HW1 9749   2.031   2.949   3.413
 3250SOL    HW2 9750   2.048   2.914   3.254
 3251SOL     OW 9751   3.158   2.900   3.093
 3251SOL    HW1 9752   3.181   2.830   3.025
 3251SOL    HW2 9753   3.063   2.928   3.081
 3252SOL     OW 9754   3.167   2.773   2.165
 3252SOL    HW1 9755   3.097   2.720   2.213
 3252SOL    HW2 9756   3.165   2.750   2.068
 3253SOL     OW 9757   3.673   3.556   3.028
 3253SOL    HW1 9758   3.732   3.585   2.953
 3253SOL    HW2 9759   3.617   3.479   2.999
 3254SOL     OW 9760   3.084   3.568   3.031
 3254SOL    HW1 9761   3.145   3.634   2.987
 3254SOL    HW2 9762   3.114   3.475   3.010
 3255SOL     OW 9763   1.973   3.127   2.898
 3255SOL    HW1 9764   1.957   3.125   2.997
 3255SOL    HW2 9765   1.898   3.078   2.852
 3256SOL     OW 9766   2.569   3.525   3.603
 3256SOL    HW1 9767   2.475   3.557   3.594
 3256SOL    HW2 9768   2.617   3.535   3.516
 3257SOL     OW 9769   3.572   2.024   2.355
 3257SOL    HW1 9770   3.651   2.015   2.294
 3257SOL    HW2 9771   3.552   1.935   2.396
 3258SOL     OW 9772   3.238   3.427   2.343
 3258SOL    HW1 9773   3.309   3.445   2.275
 3258SOL    HW2 9774   3.199   3.514   2.374
 3259SOL     OW 9775   2.011   3.662   3.700
 3259SOL    HW1 9776   1.929   3.608   3.719
 3259SOL    HW2 9777   2.045   3.702   3.785
 3260SOL     OW 9778   3.138   2.778   2.510
 3260SOL    HW1 9779   3.204   2.709   2.540
 3260SOL    HW2 9780   3.185   2.866   2.499
 3261SOL     OW 9781   2.636   3.112   3.258
 3261SOL    HW1 9782   2.611   3.165   3.339
 3261SOL    HW2 9783   2.569   3.128   3.186
 3262SOL     OW 9784   2.519   3.481   2.031
 3262SOL    HW1 9785   2.547   3.490   1.935
 3262SOL    HW2 9786   2.463   3.399   2.041
 3263SOL     OW 9787   3.497   3.582   3.242
 3263SOL    HW1 9788   3.560   3.586   3.164
 3263SOL    HW2 9789   3.482   3.675   3.277
 3264SOL     OW 9790   3.731   2.032   2.816
 3264SOL    HW1 9791   3.746   1.934   2.798
 3264SOL    HW2 9792   3.637   2.056   2.793
 3265SOL     OW 9793   2.119   2.151   2.555
 3265SOL    HW1 9794   2.030   2.189   2.531
 3265SOL    HW2 9795   2.127   2.146   2.655
 3266SOL     OW 9796   3.099   3.464   1.879
 3266SOL    HW1 9797   3.057   3.380   1.912
 3266SOL    HW2 9798   3.056   3.491   1.793
 3267SOL     OW 9799   2.710   2.864   3.228
 3267SOL    HW1 9800   2.753   2.859   3.138
 3267SOL    HW2 9801   2.672   2.955   3.242
 3268SOL     OW 9802   2.768   2.786   2.137
 3268SOL    HW1 9803   2.839   2.831   2.083
 3268SOL    HW2 9804   2.786   2.688   2.139
 3269SOL     OW 9805   3.383   3.497   1.935
 3269SOL    HW1 9806   3.284   3.491   1.952
 3269SOL    HW2 9807   3.399   3.510   1.838
 3270SOL     OW 9808   2.223   3.179   3.380
 3270SOL    HW1 9809   2.204   3.259   3.322
 3270SOL    HW2 9810   2.156   3.107   3.360
 3271SOL     OW 9811   3.479   3.154   3.162
 3271SOL    HW1 9812   3.535   3.136   3.243
 3271SOL    HW2 9813   3.412   3.225   3.183
 3272SOL     OW 9814   2.870   3.009   2.587
 3272SOL    HW1 9815   2.820   2.933   2.628
 3272SOL    HW2 9816   2.926   2.975   2.511
 3273SOL     OW 9817   2.839   2.100   2.844
 3273SOL    HW1 9818   2.821   2.074   2.750
 3273SOL    HW2 9819   2.841   2.019   2.902
 3274SOL     OW 9820   2.482   3.330   2.307
 3274SOL    HW1 9821   2.501   3.259   2.238
 3274SOL    HW2 9822   2.407   3.387   2.275
 3275SOL     OW 9823   3.578   2.254   3.223
 3275SOL    HW1 9824   3.647   2.321   3.250
 3275SOL    HW2 9825   3.615   2.194   3.152
 3276SOL     OW 9826   2.105   3.230   2.147
 3276SOL    HW1 9827   2.011   3.243   2.116
 3276SOL    HW2 9828   2.113   3.259   2.243
 3277SOL     OW 9829   1.984   2.922   3.570
 3277SOL    HW1 9830   1.905   2.885   3.619
 3277SOL    HW2 9831   2.068   2.879   3.603
 3278SOL     OW 9832   2.544   2.062   3.346
 3278SOL    HW1 9833   2.630   2.021   3.314
 3278SOL    HW2 9834   2.561   2.113   3.431
 3279SOL     OW 9835   1.921   2.205   1.896
 3279SOL    HW1 9836   1.836   2.170   1.857
 3279SOL    HW2 9837   1.947   2.289   1.848
 3280SOL     OW 9838   3.294   2.716   3.248
 3280SOL    HW1 9839   3.230   2.777   3.201
 3280SOL    HW2 9840   3.383   2.721   3.204
 3281SOL     OW 9841   1.917   2.012   2.177
 3281SOL    HW1 9842   1.881   2.092   2.128
 3281SOL    HW2 9843   2.013   1.998   2.151
 3282SOL     OW 9844   3.048   3.203   1.975
 3282SOL    HW1 9845   2.990   3.122   1.970
 3282SOL    HW2 9846   3.080   3.214   2.069
 3283SOL     OW 9847   2.482   2.657   3.300
 3283SOL    HW1 9848   2.532   2.738   3.271
 3283SOL    HW2 9849   2.546   2.589   3.335
 3284SOL     OW 9850   3.344   3.659   2.867
 3284SOL    HW1 9851   3.333   3.720   2.789
 3284SOL    HW2 9852   3.440   3.633   2.876
 3285SOL     OW 9853   2.586   2.413   3.566
 3285SOL    HW1 9854   2.608   2.475   3.641
 3285SOL    HW2 9855   2.607   2.319   3.594
 3286SOL     OW 9856   3.346   3.043   3.493
 3286SOL    HW1 9857   3.313   3.062   3.586
 3286SOL    HW2 9858   3.429   3.094   3.476
 3287SOL     OW 9859   2.236   3.572   3.414
 3287SOL    HW1 9860   2.152   3.624   3.399
 3287SOL    HW2 9861   2.215   3.490   3.467
 3288SOL     OW 9862   3.539   2.729   3.094
 3288SOL    HW1 9863   3.531   2.646   3.040
 3288SOL    HW2 9864   3.532   2.809   3.035
 3289SOL     OW 9865   3.075   2.198   2.310
 3289SOL    HW1 9866   3.133   2.118   2.294
 3289SOL    HW2 9867   3.107   2.247   2.390
 3290SOL     OW 9868   2.400   2.586   2.549
 3290SOL    HW1 9869   2.448   2.674   2.548
 3290SOL    HW2 9870   2.341   2.580   2.468
 3291SOL     OW 9871   3.594   2.247   3.515
 3291SOL    HW1 9872   3.610   2.216   3.422
 3291SOL    HW2 9873   3.522   2.192   3.557
 3292SOL     OW 9874   3.602   2.819   3.336
 3292SOL    HW1 9875   3.614   2.917   3.317
 3292SOL    HW2 9876   3.594   2.769   3.250
 3293SOL     OW 9877   2.705   3.272   1.868
 3293SOL    HW1 9878   2.717   3.257   1.966
 3293SOL    HW2 9879   2.748   3.358   1.842
 3294SOL     OW 9880   2.538   3.663   2.803
 3294SOL    HW1 9881   2.501   3.756   2.798
 3294SOL    HW2 9882   2.637   3.666   2.787
 3295SOL     OW 9883   2.728   2.836   2.733
 3295SOL    HW1 9884   2.799   2.768   2.749
 3295SOL    HW2 9885   2.700   2.877   2.820
 3296SOL     OW 9886   2.935   2.891   1.941
 3296SOL    HW1 9887   2.899   2.919   1.852
 3296SOL    HW2 9888   3.008   2.823   1.928
 3297SOL     OW 9889   3.678   3.421   2.724
 3297SOL    HW1 9890   3.599   3.412   2.663
 3297SOL    HW2 9891   3.668   3.359   2.802
 3298SOL     OW 9892   2.055   3.131   3.743
 3298SOL    HW1 9893   2.016   3.046   3.707
 3298SOL    HW2 9894   2.044   3.133   3.843
 3299SOL     OW 9895   1.976   3.081   2.482
 3299SOL    HW1 9896   1.980   3.049   2.577
 3299SOL    HW2 9897   2.059   3.054   2.434
 3300SOL     OW 9898   2.579   3.245   3.474
 3300SOL    HW1 9899   2.485   3.234   3.508
 3300SOL    HW2 9900   2.628   3.310   3.532
 3301SOL     OW 9901   3.681   2.034   3.093
 3301SOL    HW1 9902   3.678   1.941   3.129
 3301SOL    HW2 9903   3.712   2.032   2.998
 3302SOL     OW 9904   2.265   2.292   2.380
 3302SOL    HW1 9905   2.316   2.221   2.332
 3302SOL    HW2 9906   2.201   2.250   2.445
 3303SOL     OW 9907   3.548   3.325   2.958
 3303SOL    HW1 9908   3.459   3.323   2.912
 3303SOL    HW2 9909   3.549   3.257   3.031
 3304SOL     OW 9910   2.169   2.409   3.134
 3304SOL    HW1 9911   2.231   2.365   3.199
 3304SOL    HW2 9912   2.190   2.379   3.041
 3305SOL     OW 9913   2.684   3.423   2.559
 3305SOL    HW1 9914   2.690   3.447   2.462
 3305SOL    HW2 9915   2.598   3.376   2.576
 3306SOL     OW 9916   3.267   2.083   2.984
 3306SOL    HW1 9917   3.351   2.048   3.025
 3306SOL    HW2 9918   3.218   2.140   3.050
 3307SOL     OW 9919   2.858   1.876   3.051
 3307SOL    HW1 9920   2.802   1.822   2.987
 3307SOL    HW2 9921   2.944   1.829   3.067
 3308SOL     OW 9922   2.698   3.145   2.194
 3308SOL    HW1 9923   2.633   3.071   2.214
 3308SOL    HW2 9924   2.735   3.181   2.279
 3309SOL     OW 9925   2.490   3.413   3.133
 3309SOL    HW1 9926   2.478   3.492   3.195
 3309SOL    HW2 9927   2.581   3.415   3.094
 3310SOL     OW 9928   3.238   1.930   2.020
 3310SOL    HW1 9929   3.285   1.887   1.942
 3310SOL    HW2 9930   3.165   1.871   2.052
 3311SOL     OW 9931   3.178   2.315   2.532
 3311SOL    HW1 9932   3.128   2.402   2.531
 3311SOL    HW2 9933   3.181   2.279   2.625
 3312SOL     OW 9934   3.471   2.085   2.762
 3312SOL    HW1 9935   3.403   2.096   2.834
 3312SOL    HW2 9936   3.467   2.164   2.700
 3313SOL     OW 9937   1.890   2.954   2.153
 3313SOL    HW1 9938   1.990   2.955   2.158
 3313SOL    HW2 9939   1.857   2.860   2.155
 3314SOL     OW 9940   2.752   3.517   2.150
 3314SOL    HW1 9941   2.665   3.494   2.108
 3314SOL    HW2 9942   2.739   3.586   2.221
 3315SOL     OW 9943   2.110   2.511   3.861
 3315SOL    HW1 9944   2.022   2.525   3.907
 3315SOL    HW2 9945   2.094   2.471   3.771
 3316SOL     OW 9946   2.113   2.134   4.693
 3316SOL    HW1 9947   2.150   2.109   4.782
 3316SOL    HW2 9948   2.018   2.103   4.686
 3317SOL     OW 9949   1.885   2.255   4.358
 3317SOL    HW1 9950   1.811   2.286   4.417
 3317SOL    HW2 9951   1.852   2.182   4.298
 3318SOL     OW 9952   2.392   3.150   4.898
 3318SOL    HW1 9953   2.320   3.174   4.833
 3318SOL    HW2 9954   2.415   3.230   4.954
 3319SOL     OW 9955   3.426   3.381   4.439
 3319SOL    HW1 9956   3.383   3.344   4.521
 3319SOL    HW2 9957   3.357   3.390   4.367
 3320SOL     OW 9958   2.987   2.554   4.357
 3320SOL    HW1 9959   3.038   2.639   4.371
 3320SOL    HW2 9960   2.908   2.552   4.417
 3321SOL     OW 9961   3.560   2.492   3.961
 3321SOL    HW1 9962   3.567   2.492   3.861
 3321SOL    HW2 9963   3.527   2.403   3.992
 3322SOL     OW 9964   2.611   3.029   4.776
 3322SOL    HW1 9965   2.521   3.051   4.815
 3322SOL    HW2 9966   2.649   3.110   4.731
 3323SOL     OW 9967   2.682   2.654   5.524
 3323SOL    HW1 9968   2.662   2.717   5.599
 3323SOL    HW2 9969   2.737   2.701   5.455
 3324SOL     OW 9970   2.529   2.847   4.421
 3324SOL    HW1 9971   2.604   2.851   4.486
 3324SOL    HW2 9972   2.460   2.915   4.445
 3325SOL     OW 9973   2.556   3.014   5.538
 3325SOL    HW1 9974   2.611   3.097   5.548
 3325SOL    HW2 9975   2.461   3.038   5.520
 3326SOL     OW 9976   2.210   3.298   4.754
 3326SOL    HW1 9977   2.122   3.274   4.712
 3326SOL    HW2 9978   2.257   3.365   4.696
 3327SOL     OW 9979   3.345   3.370   5.082
 3327SOL    HW1 9980   3.404   3.450   5.091
 3327SOL    HW2 9981   3.266   3.381   5.143
 3328SOL     OW 9982   2.302   2.289   5.190
 3328SOL    HW1 9983   2.384   2.233   5.181
 3328SOL    HW2 9984   2.226   2.232   5.219
 3329SOL     OW 9985   3.532   2.332   4.490
 3329SOL    HW1 9986   3.467   2.368   4.423
 3329SOL    HW2 9987   3.559   2.405   4.553
 3330SOL     OW 9988   2.093   3.566   4.229
 3330SOL    HW1 9989   2.128   3.653   4.262
 3330SOL    HW2 9990   2.141   3.540   4.145
 3331SOL     OW 9991   2.980   3.204   5.431
 3331SOL    HW1 9992   3.052   3.184   5.497
 3331SOL    HW2 9993   2.929   3.120   5.412
 3332SOL     OW 9994   2.128   3.287   4.273
 3332SOL    HW1 9995   2.094   3.381   4.279
 3332SOL    HW2 9996   2.059   3.225   4.310
 3333SOL     OW 9997   2.096   2.952   4.597
 3333SOL    HW1 9998   2.100   2.860   4.636
 3333SOL    HW2 9999   2.062   3.015   4.666
 3334SOL     OW10000   2.485   3.623   5.177
 3334SOL    HW110001   2.391   3.605   5.207
 3334SOL    HW210002   2.508   3.719   5.193
 3335SOL     OW10003   2.454   2.804   3.882
 3335SOL    HW110004   2.475   2.865   3.805
 3335SOL    HW210005   2.509   2.829   3.961
 3336SOL     OW10006   3.488   2.015   5.176
 3336SOL    HW110007   3.497   2.108   5.139
 3336SOL    HW210008   3.449   2.020   5.268
 3337SOL     OW10009   1.983   2.508   4.274
 3337SOL    HW110010   1.961   2.414   4.301
 3337SOL    HW210011   1.977   2.568   4.354
 3338SOL     OW10012   3.731   3.599   4.070
 3338SOL    HW110013   3.788   3.576   4.149
 3338SOL    HW210014   3.739   3.697   4.051
 3339SOL     OW10015   1.858   3.472   3.836
 3339SOL    HW110016   1.851   3.376   3.861
 3339SOL    HW210017   1.867   3.528   3.919
 3340SOL     OW10018   3.536   2.796   4.361
 3340SOL    HW110019   3.615   2.744   4.328
 3340SOL    HW210020   3.511   2.866   4.294
 3341SOL     OW10021   3.512   3.029   4.206
 3341SOL    HW110022   3.597   3.004   4.159
 3341SOL    HW210023   3.533   3.061   4.298
 3342SOL     OW10024   1.985   2.614   5.324
 3342SOL    HW110025   2.084   2.612   5.307
 3342SOL    HW210026   1.948   2.702   5.295
 3343SOL     OW10027   2.458   3.243   4.438
 3343SOL    HW110028   2.401   3.162   4.449
 3343SOL    HW210029   2.453   3.274   4.343
 3344SOL     OW10030   3.143   3.087   5.167
 3344SOL    HW110031   3.162   3.025   5.091
 3344SOL    HW210032   3.209   3.070   5.241
 3345SOL     OW10033   2.685   1.836   4.193
 3345SOL    HW110034   2.737   1.921   4.196
 3345SOL    HW210035   2.588   1.855   4.209
 3346SOL     OW10036   2.043   2.805   5.007
 3346SOL    HW110037   2.121   2.763   4.961
 3346SOL    HW210038   1.958   2.764   4.973
 3347SOL     OW10039   3.431   2.824   3.916
 3347SOL    HW110040   3.354   2.769   3.947
 3347SOL    HW210041   3.438   2.906   3.973
 3348SOL     OW10042   3.060   3.665   5.342
 3348SOL    HW110043   3.032   3.726   5.268
 3348SOL    HW210044   3.080   3.575   5.305
 3349SOL     OW10045   2.165   2.100   5.563
 3349SOL    HW110046   2.195   2.194   5.550
 3349SOL    HW210047   2.069   2.099   5.593
 3350SOL     OW10048   3.328   3.274   4.658
 3350SOL    HW110049   3.263   3.288   4.732
 3350SOL    HW210050   3.339   3.175   4.643
 3351SOL     OW10051   3.505   3.619   4.314
 3351SOL    HW110052   3.462   3.596   4.226
 3351SOL    HW210053   3.503   3.539   4.374
 3352SOL     OW10054   2.483   2.560   4.018
 3352SOL    HW110055   2.482   2.636   3.953
 3352SOL    HW210056   2.409   2.571   4.084
 3353SOL     OW10057   3.167   2.232   4.656
 3353SOL    HW110058   3.070   2.211   4.654
 3353SOL    HW210059   3.211   2.180   4.729
 3354SOL     OW10060   3.448   3.535   4.053
 3354SOL    HW110061   3.545   3.556   4.068
 3354SOL    HW210062   3.432   3.520   3.956
 3355SOL     OW10063   2.670   2.459   5.182
 3355SOL    HW110064   2.637   2.437   5.274
 3355SOL    HW210065   2.630   2.395   5.117
 3356SOL     OW10066   3.260   2.375   5.414
 3356SOL    HW110067   3.254   2.408   5.508
 3356SOL    HW210068   3.318   2.294   5.410
 3357SOL     OW10069   2.843   2.734   5.294
 3357SOL    HW110070   2.892   2.656   5.253
 3357SOL    HW210071   2.793   2.783   5.222
 3358SOL     OW10072   2.859   2.230   4.968
 3358SOL    HW110073   2.777   2.286   4.980
 3358SOL    HW210074   2.854   2.184   4.879
 3359SOL     OW10075   2.918   2.553   4.086
 3359SOL    HW110076   2.940   2.560   4.184
 3359SOL    HW210077   2.834   2.501   4.074
 3360SOL     OW10078   1.957   2.679   4.494
 3360SOL    HW110079   2.037   2.656   4.550
 3360SOL    HW210080   1.903   2.748   4.541
 3361SOL     OW10081   1.989   3.682   5.304
 3361SOL    HW110082   2.003   3.684   5.403
 3361SOL    HW210083   1.927   3.757   5.278
 3362SOL     OW10084   2.726   2.174   3.890
 3362SOL    HW110085   2.767   2.239   3.825
 3362SOL    HW210086   2.763   2.083   3.874
 3363SOL     OW10087   3.570   2.478   5.558
 3363SOL    HW110088   3.547   2.562   5.508
 3363SOL    HW210089   3.572   2.401   5.495
 3364SOL     OW10090   3.237   3.024   4.287
 3364SOL    HW110091   3.321   3.016   4.234
 3364SOL    HW210092   3.165   3.065   4.229
 3365SOL     OW10093   2.390   2.027   4.653
 3365SOL    HW110094   2.409   2.061   4.744
 3365SOL    HW210095   2.386   2.103   4.588
 3366SOL     OW10096   2.891   3.345   4.169
 3366SOL    HW110097   2.825   3.401   4.119
 3366SOL    HW210098   2.921   3.395   4.251
 3367SOL     OW10099   2.204   3.658   4.576
 3367SOL    HW110100   2.260   3.575   4.582
 3367SOL    HW210101   2.259   3.737   4.603
 3368SOL     OW10102   3.672   2.917   4.624
 3368SOL    HW110103   3.640   2.966   4.544
 3368SOL    HW210104   3.602   2.920   4.696
 3369SOL     OW10105   3.115   3.421   5.232
 3369SOL    HW110106   3.137   3.335   5.277
 3369SOL    HW210107   3.019   3.420   5.203
 3370SOL     OW10108   2.175   2.852   3.962
 3370SOL    HW110109   2.275   2.851   3.953
 3370SOL    HW210110   2.139   2.762   3.938
 3371SOL     OW10111   3.319   2.611   4.463
 3371SOL    HW110112   3.314   2.542   4.536
 3371SOL    HW210113   3.411   2.647   4.458
 3372SOL     OW10114   2.302   3.132   5.494
 3372SOL    HW110115   2.291   3.141   5.395
 3372SOL    HW210116   2.213   3.138   5.539
 3373SOL     OW10117   3.039   3.617   3.950
 3373SOL    HW110118   2.950   3.591   3.987
 3373SOL    HW210119   3.054   3.571   3.863
 3374SOL     OW10120   2.067   2.129   5.244
 3374SOL    HW110121   1.982   2.172   5.211
 3374SOL    HW210122   2.062   2.118   5.343
 3375SOL     OW10123   3.450   3.233   3.858
 3375SOL    HW110124   3.441   3.328   3.827
 3375SOL    HW210125   3.386   3.175   3.807
 3376SOL     OW10126   2.335   3.583   4.068
 3376SOL    HW110127   2.372   3.659   4.122
 3376SOL    HW210128   2.401   3.555   3.999
 3377SOL     OW10129   3.236   1.996   4.147
 3377SOL    HW110130   3.230   1.977   4.049
 3377SOL    HW210131   3.331   2.011   4.172
 3378SOL     OW10132   2.129   3.670   4.912
 3378SOL    HW110133   2.148   3.586   4.962
 3378SOL    HW210134   2.106   3.648   4.818
 3379SOL     OW10135   2.798   3.580   4.625
 3379SOL    HW110136   2.848   3.516   4.684
 3379SOL    HW210137   2.754   3.530   4.551
 3380SOL     OW10138   2.250   2.552   4.185
 3380SOL    HW110139   2.260   2.454   4.203
 3380SOL    HW210140   2.157   2.581   4.205
 3381SOL     OW10141   3.364   2.107   5.446
 3381SOL    HW110142   3.371   2.129   5.543
 3381SOL    HW210143   3.284   2.049   5.431
 3382SOL     OW10144   2.466   1.958   3.797
 3382SOL    HW110145   2.557   1.915   3.800
 3382SOL    HW210146   2.414   1.921   3.720
 3383SOL     OW10147   2.603   2.150   5.489
 3383SOL    HW110148   2.690   2.100   5.486
 3383SOL    HW210149   2.549   2.118   5.566
 3384SOL     OW10150   2.777   3.403   4.918
 3384SOL    HW110151   2.738   3.357   4.838
 3384SOL    HW210152   2.849   3.345   4.956
 3385SOL     OW10153   3.196   2.471   5.172
 3385SOL    HW110154   3.237   2.446   5.260
 3385SOL    HW210155   3.231   2.561   5.144
 3386SOL     OW10156   2.638   3.255   4.642
 3386SOL    HW110157   2.725   3.278   4.599
 3386SOL    HW210158   2.573   3.227   4.571
 3387SOL     OW10159   2.782   2.366   4.634
 3387SOL    HW110160   2.739   2.344   4.546
 3387SOL    HW210161   2.812   2.282   4.679
 3388SOL     OW10162   2.435   1.932   4.198
 3388SOL    HW110163   2.357   1.931   4.260
 3388SOL    HW210164   2.439   2.020   4.151
 3389SOL     OW10165   3.268   3.054   3.743
 3389SOL    HW110166   3.297   2.962   3.768
 3389SOL    HW210167   3.200   3.086   3.809
 3390SOL     OW10168   2.151   1.907   3.928
 3390SOL    HW110169   2.205   1.962   3.864
 3390SOL    HW210170   2.211   1.843   3.976
 3391SOL     OW10171   2.798   2.082   4.198
 3391SOL    HW110172   2.753   2.126   4.121
 3391SOL    HW210173   2.891   2.116   4.206
 3392SOL     OW10174   2.938   2.523   5.161
 3392SOL    HW110175   2.860   2.460   5.165
 3392SOL    HW210176   3.023   2.471   5.170
 3393SOL     OW10177   3.065   3.419   4.517
 3393SOL    HW110178   3.101   3.454   4.430
 3393SOL    HW210179   3.137   3.423   4.586
 3394SOL     OW10180   2.318   3.006   4.468
 3394SOL    HW110181   2.235   2.979   4.517
 3394SOL    HW210182   2.299   3.007   4.369
 3395SOL     OW10183   3.156   3.658   4.302
 3395SOL    HW110184   3.182   3.724   4.232
 3395SOL    HW210185   3.101   3.704   4.372
 3396SOL     OW10186   2.879   2.383   3.686
 3396SOL    HW110187   2.840   2.475   3.678
 3396SOL    HW210188   2.936   2.378   3.768
 3397SOL     OW10189   1.938   2.402   5.149
 3397SOL    HW110190   2.019   2.394   5.090
 3397SOL    HW210191   1.947   2.484   5.206
 3398SOL     OW10192   2.413   2.097   4.924
 3398SOL    HW110193   2.474   2.031   4.967
 3398SOL    HW210194   2.319   2.078   4.950
 3399SOL     OW10195   2.711   2.278   4.388
 3399SOL    HW110196   2.666   2.327   4.314
 3399SOL    HW210197   2.758   2.198   4.351
 3400SOL     OW10198   2.833   1.935   4.476
 3400SOL    HW110199   2.798   1.901   4.389
 3400SOL    HW210200   2.854   1.858   4.536
 3401SOL     OW10201   3.313   2.993   4.613
 3401SOL    HW110202   3.225   2.948   4.627
 3401SOL    HW210203   3.338   2.988   4.516
 3402SOL     OW10204   3.339   2.439   4.666
 3402SOL    HW110205   3.285   2.354   4.668
 3402SOL    HW210206   3.399   2.442   4.746
 3403SOL     OW10207   3.750   2.668   4.084
 3403SOL    HW110208   3.783   2.612   4.160
 3403SOL    HW210209   3.679   2.618   4.034
 3404SOL     OW10210   2.355   3.268   3.918
 3404SOL    HW110211   2.262   3.251   3.951
 3404SOL    HW210212   2.360   3.242   3.821
 3405SOL     OW10213   3.576   3.152   4.439
 3405SOL    HW110214   3.665   3.165   4.394
 3405SOL    HW210215   3.522   3.236   4.431
 3406SOL     OW10216   3.232   2.447   3.813
 3406SOL    HW110217   3.161   2.407   3.871
 3406SOL    HW210218   3.322   2.420   3.847
 3407SOL     OW10219   2.412   2.149   4.042
 3407SOL    HW110220   2.420   2.080   3.970
 3407SOL    HW210221   2.382   2.236   4.003
 3408SOL     OW10222   3.616   3.114   5.275
 3408SOL    HW110223   3.706   3.071   5.284
 3408SOL    HW210224   3.623   3.210   5.300
 3409SOL     OW10225   2.918   3.217   5.088
 3409SOL    HW110226   2.831   3.190   5.128
 3409SOL    HW210227   2.993   3.168   5.132
 3410SOL     OW10228   3.466   3.534   5.382
 3410SOL    HW110229   3.457   3.552   5.284
 3410SOL    HW210230   3.550   3.484   5.400
 3411SOL     OW10231   2.917   3.040   4.857
 3411SOL    HW110232   2.915   3.108   4.931
 3411SOL    HW210233   2.902   3.085   4.769
 3412SOL     OW10234   3.500   2.958   4.822
 3412SOL    HW110235   3.490   3.030   4.891
 3412SOL    HW210236   3.429   2.970   4.752
 3413SOL     OW10237   2.790   1.942   5.162
 3413SOL    HW110238   2.793   1.922   5.064
 3413SOL    HW210239   2.868   2.000   5.186
 3414SOL     OW10240   2.846   2.961   5.448
 3414SOL    HW110241   2.748   2.972   5.459
 3414SOL    HW210242   2.865   2.885   5.386
 3415SOL     OW10243   2.591   2.930   4.139
 3415SOL    HW110244   2.582   2.903   4.235
 3415SOL    HW210245   2.666   2.879   4.097
 3416SOL     OW10246   2.273   2.658   4.968
 3416SOL    HW110247   2.348   2.666   5.034
 3416SOL    HW210248   2.224   2.572   4.983
 3417SOL     OW10249   3.140   2.288   4.993
 3417SOL    HW110250   3.169   2.364   5.052
 3417SOL    HW210251   3.044   2.302   4.967
 3418SOL     OW10252   1.926   3.413   5.072
 3418SOL    HW110253   1.876   3.477   5.015
 3418SOL    HW210254   2.022   3.441   5.077
 3419SOL     OW10255   2.250   3.006   4.209
 3419SOL    HW110256   2.254   3.079   4.140
 3419SOL    HW210257   2.259   2.917   4.164
 3420SOL     OW10258   2.451   2.388   4.591
 3420SOL    HW110259   2.441   2.460   4.522
 3420SOL    HW210260   2.508   2.421   4.666
 3421SOL     OW10261   3.117   3.215   4.098
 3421SOL    HW110262   3.178   3.282   4.141
 3421SOL    HW210263   3.022   3.239   4.118
 3422SOL     OW10264   3.174   3.309   4.873
 3422SOL    HW110265   3.235   3.330   4.950
 3422SOL    HW210266   3.119   3.229   4.896
 3423SOL     OW10267   3.495   2.503   4.238
 3423SOL    HW110268   3.406   2.525   4.278
 3423SOL    HW210269   3.504   2.547   4.149
 3424SOL     OW10270   2.199   3.401   5.015
 3424SOL    HW110271   2.202   3.356   4.926
 3424SOL    HW210272   2.292   3.418   5.047
 3425SOL     OW10273   2.242   2.584   5.293
 3425SOL    HW110274   2.296   2.641   5.231
 3425SOL    HW210275   2.302   2.530   5.351
 3426SOL     OW10276   3.489   2.691   5.411
 3426SOL    HW110277   3.391   2.700   5.395
 3426SOL    HW210278   3.540   2.735   5.337
 3427SOL     OW10279   2.841   2.025   5.482
 3427SOL    HW110280   2.918   2.089   5.473
 3427SOL    HW210281   2.869   1.934   5.451
 3428SOL     OW10282   2.315   1.870   5.487
 3428SOL    HW110283   2.292   1.834   5.396
 3428SOL    HW210284   2.260   1.951   5.505
 3429SOL     OW10285   2.430   2.710   4.737
 3429SOL    HW110286   2.467   2.803   4.738
 3429SOL    HW210287   2.371   2.696   4.816
 3430SOL     OW10288   3.180   2.702   4.782
 3430SOL    HW110289   3.095   2.707   4.728
 3430SOL    HW210290   3.229   2.618   4.758
 3431SOL     OW10291   3.046   2.348   3.972
 3431SOL    HW110292   3.044   2.270   4.034
 3431SOL    HW210293   3.013   2.429   4.019
 3432SOL     OW10294   2.149   2.067   4.989
 3432SOL    HW110295   2.113   2.073   5.083
 3432SOL    HW210296   2.141   1.973   4.956
 3433SOL     OW10297   1.924   3.145   5.012
 3433SOL    HW110298   1.972   3.093   5.083
 3433SOL    HW210299   1.933   3.243   5.031
 3434SOL     OW10300   2.615   2.500   4.792
 3434SOL    HW110301   2.684   2.467   4.729
 3434SOL    HW210302   2.573   2.583   4.755
 3435SOL     OW10303   3.610   2.854   5.609
 3435SOL    HW110304   3.583   2.789   5.538
 3435SOL    HW210305   3.533   2.869   5.671
 3436SOL     OW10306   2.208   1.923   4.331
 3436SOL    HW110307   2.165   2.008   4.357
 3436SOL    HW210308   2.200   1.856   4.405
 3437SOL     OW10309   3.449   2.266   4.103
 3437SOL    HW110310   3.485   2.191   4.158
 3437SOL    HW210311   3.434   2.346   4.162
 3438SOL     OW10312   2.901   2.639   4.677
 3438SOL    HW110313   2.895   2.653   4.776
 3438SOL    HW210314   2.859   2.551   4.653
 3439SOL     OW10315   2.849   3.438   5.457
 3439SOL    HW110316   2.817   3.484   5.374
 3439SOL    HW210317   2.900   3.356   5.433
 3440SOL     OW10318   3.701   3.390   5.357
 3440SOL    HW110319   3.734   3.414   5.265
 3440SOL    HW210320   3.774   3.402   5.423
 3441SOL     OW10321   2.220   2.791   5.508
 3441SOL    HW110322   2.302   2.799   5.566
 3441SOL    HW210323   2.235   2.721   5.439
 3442SOL     OW10324   3.408   2.143   3.871
 3442SOL    HW110325   3.362   2.055   3.874
 3442SOL    HW210326   3.419   2.179   3.963
 3443SOL     OW10327   3.170   2.709   3.778
 3443SOL    HW110328   3.185   2.610   3.783
 3443SOL    HW210329   3.189   2.740   3.684
 3444SOL     OW10330   2.922   3.221   4.626
 3444SOL    HW110331   2.916   3.148   4.558
 3444SOL    HW210332   2.973   3.298   4.588
 3445SOL     OW10333   2.164   2.641   4.677
 3445SOL    HW110334   2.253   2.679   4.654
 3445SOL    HW210335   2.175   2.548   4.711
 3446SOL     OW10336   2.203   2.378   4.722
 3446SOL    HW110337   2.161   2.289   4.705
 3446SOL    HW210338   2.281   2.390   4.660
 3447SOL     OW10339   3.038   2.233   5.419
 3447SOL    HW110340   2.967   2.282   5.469
 3447SOL    HW210341   3.118   2.293   5.407
 3448SOL     OW10342   3.014   2.071   5.213
 3448SOL    HW110343   3.012   2.142   5.284
 3448SOL    HW210344   3.055   2.108   5.130
 3449SOL     OW10345   1.838   3.199   3.943
 3449SOL    HW110346   1.742   3.206   3.917
 3449SOL    HW210347   1.859   3.104   3.968
 3450SOL     OW10348   1.959   3.641   4.676
 3450SOL    HW110349   1.910   3.566   4.632
 3450SOL    HW210350   2.044   3.659   4.626
 3451SOL     OW10351   2.364   3.454   4.614
 3451SOL    HW110352   2.441   3.515   4.633
 3451SOL    HW210353   2.395   3.378   4.557
 3452SOL     OW10354   2.849   2.663   4.931
 3452SOL    HW110355   2.909   2.665   5.011
 3452SOL    HW210356   2.770   2.604   4.950
 3453SOL     OW10357   1.897   2.406   4.821
 3453SOL    HW110358   1.984   2.432   4.780
 3453SOL    HW210359   1.914   2.358   4.907
 3454SOL     OW10360   2.099   2.389   5.444
 3454SOL    HW110361   2.165   2.366   5.372
 3454SOL    HW210362   2.042   2.466   5.414
 3455SOL     OW10363   3.243   2.794   5.364
 3455SOL    HW110364   3.271   2.890   5.370
 3455SOL    HW210365   3.241   2.766   5.268
 3456SOL     OW10366   2.700   2.411   4.045
 3456SOL    HW110367   2.694   2.329   3.989
 3456SOL    HW210368   2.613   2.462   4.040
 3457SOL     OW10369   3.502   2.451   4.889
 3457SOL    HW110370   3.487   2.419   4.983
 3457SOL    HW210371   3.599   2.440   4.865
 3458SOL     OW10372   2.108   3.404   5.457
 3458SOL    HW110373   2.106   3.475   5.528
 3458SOL    HW210374   2.097   3.314   5.500
 3459SOL     OW10375   2.573   2.315   4.981
 3459SOL    HW110376   2.510   2.239   4.963
 3459SOL    HW210377   2.570   2.379   4.904
 3460SOL     OW10378   2.774   3.514   5.196
 3460SOL    HW110379   2.776   3.467   5.108
 3460SOL    HW210380   2.766   3.612   5.182
 3461SOL     OW10381   2.354   2.369   3.872
 3461SOL    HW110382   2.420   2.424   3.923
 3461SOL    HW210383   2.265   2.414   3.875
 3462SOL     OW10384   2.041   2.992   5.193
 3462SOL    HW110385   2.007   2.953   5.279
 3462SOL    HW210386   2.043   2.921   5.123
 3463SOL     OW10387   3.151   2.899   4.962
 3463SOL    HW110388   3.177   2.836   4.889
 3463SOL    HW210389   3.057   2.931   4.947
 3464SOL     OW10390   3.162   2.758   4.033
 3464SOL    HW110391   3.087   2.707   4.076
 3464SOL    HW210392   3.162   2.740   3.935
 3465SOL     OW10393   3.663   3.565   4.890
 3465SOL    HW110394   3.729   3.592   4.820
 3465SOL    HW210395   3.614   3.483   4.860
 3466SOL     OW10396   3.080   3.571   4.891
 3466SOL    HW110397   3.143   3.634   4.845
 3466SOL    HW210398   3.113   3.477   4.880
 3467SOL     OW10399   1.973   3.132   4.753
 3467SOL    HW110400   1.959   3.130   4.852
 3467SOL    HW210401   1.899   3.083   4.708
 3468SOL     OW10402   2.569   3.527   5.470
 3468SOL    HW110403   2.472   3.547   5.460
 3468SOL    HW210404   2.617   3.551   5.386
 3469SOL     OW10405   3.563   2.025   4.216
 3469SOL    HW110406   3.641   2.016   4.155
 3469SOL    HW210407   3.544   1.937   4.259
 3470SOL     OW10408   3.239   3.427   4.205
 3470SOL    HW110409   3.308   3.446   4.135
 3470SOL    HW210410   3.198   3.513   4.235
 3471SOL     OW10411   2.012   3.685   5.582
 3471SOL    HW110412   1.931   3.627   5.597
 3471SOL    HW210413   2.056   3.703   5.670
 3472SOL     OW10414   3.138   2.777   4.379
 3472SOL    HW110415   3.206   2.711   4.408
 3472SOL    HW210416   3.181   2.867   4.367
 3473SOL     OW10417   2.639   3.108   5.122
 3473SOL    HW110418   2.619   3.167   5.200
 3473SOL    HW210419   2.570   3.121   5.051
 3474SOL     OW10420   2.517   3.481   3.890
 3474SOL    HW110421   2.545   3.489   3.794
 3474SOL    HW210422   2.462   3.398   3.901
 3475SOL     OW10423   3.497   3.603   5.114
 3475SOL    HW110424   3.559   3.597   5.036
 3475SOL    HW210425   3.479   3.699   5.136
 3476SOL     OW10426   3.733   2.033   4.681
 3476SOL    HW110427   3.743   1.935   4.666
 3476SOL    HW210428   3.638   2.060   4.662
 3477SOL     OW10429   2.117   2.151   4.420
 3477SOL    HW110430   2.029   2.190   4.394
 3477SOL    HW210431   2.124   2.148   4.520
 3478SOL     OW10432   3.097   3.461   3.738
 3478SOL    HW110433   3.056   3.380   3.781
 3478SOL    HW210434   3.047   3.484   3.655
 3479SOL     OW10435   2.706   2.860   5.104
 3479SOL    HW110436   2.752   2.848   5.016
 3479SOL    HW210437   2.670   2.953   5.111
 3480SOL     OW10438   2.770   2.783   3.997
 3480SOL    HW110439   2.843   2.828   3.945
 3480SOL    HW210440   2.786   2.685   3.998
 3481SOL     OW10441   3.382   3.495   3.798
 3481SOL    HW110442   3.284   3.490   3.814
 3481SOL    HW210443   3.399   3.509   3.700
 3482SOL     OW10444   2.222   3.182   5.251
 3482SOL    HW110445   2.201   3.262   5.195
 3482SOL    HW210446   2.158   3.108   5.230
 3483SOL     OW10447   3.487   3.152   5.028
 3483SOL    HW110448   3.542   3.131   5.109
 3483SOL    HW210449   3.425   3.227   5.049
 3484SOL     OW10450   2.875   3.015   4.444
 3484SOL    HW110451   2.828   2.935   4.483
 3484SOL    HW210452   2.928   2.987   4.364
 3485SOL     OW10453   2.843   2.103   4.713
 3485SOL    HW110454   2.820   2.073   4.621
 3485SOL    HW210455   2.830   2.028   4.777
 3486SOL     OW10456   2.490   3.330   4.167
 3486SOL    HW110457   2.508   3.260   4.098
 3486SOL    HW210458   2.412   3.386   4.139
 3487SOL     OW10459   3.586   2.267   5.084
 3487SOL    HW110460   3.660   2.329   5.111
 3487SOL    HW210461   3.622   2.201   5.017
 3488SOL     OW10462   2.105   3.231   4.007
 3488SOL    HW110463   2.011   3.244   3.977
 3488SOL    HW210464   2.113   3.257   4.104
 3489SOL     OW10465   1.970   2.920   5.450
 3489SOL    HW110466   1.900   2.891   5.516
 3489SOL    HW210467   2.057   2.876   5.472
 3490SOL     OW10468   2.545   2.060   5.214
 3490SOL    HW110469   2.634   2.023   5.190
 3490SOL    HW210470   2.554   2.124   5.290
 3491SOL     OW10471   1.918   2.204   3.761
 3491SOL    HW110472   1.834   2.168   3.722
 3491SOL    HW210473   1.946   2.286   3.712
 3492SOL     OW10474   3.293   2.722   5.114
 3492SOL    HW110475   3.231   2.782   5.064
 3492SOL    HW210476   3.385   2.728   5.075
 3493SOL     OW10477   1.919   2.016   4.035
 3493SOL    HW110478   1.885   2.096   3.985
 3493SOL    HW210479   2.014   1.998   4.009
 3494SOL     OW10480   3.042   3.196   3.844
 3494SOL    HW110481   2.986   3.113   3.837
 3494SOL    HW210482   3.075   3.204   3.938
 3495SOL     OW10483   2.481   2.655   5.176
 3495SOL    HW110484   2.525   2.745   5.180
 3495SOL    HW210485   2.549   2.583   5.189
 3496SOL     OW10486   3.358   3.652   4.722
 3496SOL    HW110487   3.335   3.713   4.645
 3496SOL    HW210488   3.454   3.626   4.716
 3497SOL     OW10489   2.579   2.424   5.428
 3497SOL    HW110490   2.606   2.497   5.491
 3497SOL    HW210491   2.598   2.335   5.469
 3498SOL     OW10492   3.322   3.065   5.357
 3498SOL    HW110493   3.306   3.065   5.455
 3498SOL    HW210494   3.414   3.099   5.338
 3499SOL     OW10495   2.229   3.592   5.265
 3499SOL    HW110496   2.140   3.638   5.262
 3499SOL    HW210497   2.218   3.503   5.310
 3500SOL     OW10498   3.536   2.737   4.962
 3500SOL    HW110499   3.528   2.652   4.910
 3500SOL    HW210500   3.536   2.815   4.900
 3501SOL     OW10501   3.057   2.187   4.184
 3501SOL    HW110502   3.120   2.112   4.162
 3501SOL    HW210503   3.094   2.241   4.260
 3502SOL     OW10504   2.392   2.592   4.420
 3502SOL    HW110505   2.448   2.675   4.417
 3502SOL    HW210506   2.343   2.581   4.334
 3503SOL     OW10507   3.595   2.254   5.383
 3503SOL    HW110508   3.599   2.268   5.284
 3503SOL    HW210509   3.523   2.187   5.404
 3504SOL     OW10510   3.610   2.821   5.203
 3504SOL    HW110511   3.601   2.921   5.198
 3504SOL    HW210512   3.596   2.781   5.113
 3505SOL     OW10513   2.702   3.275   3.729
 3505SOL    HW110514   2.711   3.261   3.827
 3505SOL    HW210515   2.751   3.358   3.702
 3506SOL     OW10516   2.537   3.662   4.665
 3506SOL    HW110517   2.496   3.753   4.664
 3506SOL    HW210518   2.636   3.670   4.652
 3507SOL     OW10519   2.733   2.841   4.593
 3507SOL    HW110520   2.801   2.772   4.616
 3507SOL    HW210521   2.699   2.884   4.677
 3508SOL     OW10522   2.937   2.889   3.798
 3508SOL    HW110523   2.899   2.922   3.711
 3508SOL    HW210524   3.005   2.818   3.779
 3509SOL     OW10525   3.669   3.426   4.583
 3509SOL    HW110526   3.590   3.413   4.523
 3509SOL    HW210527   3.661   3.365   4.662
 3510SOL     OW10528   2.058   3.152   5.590
 3510SOL    HW110529   2.014   3.074   5.546
 3510SOL    HW210530   2.019   3.167   5.680
 3511SOL     OW10531   1.980   3.078   4.346
 3511SOL    HW110532   1.980   3.047   4.441
 3511SOL    HW210533   2.061   3.043   4.300
 3512SOL     OW10534   2.598   3.246   5.345
 3512SOL    HW110535   2.505   3.252   5.380
 3512SOL    HW210536   2.654   3.317   5.386
 3513SOL     OW10537   3.683   2.036   4.952
 3513SOL    HW110538   3.675   1.943   4.988
 3513SOL    HW210539   3.714   2.033   4.857
 3514SOL     OW10540   2.259   2.294   4.247
 3514SOL    HW110541   2.312   2.224   4.199
 3514SOL    HW210542   2.199   2.251   4.314
 3515SOL     OW10543   3.549   3.327   4.825
 3515SOL    HW110544   3.459   3.322   4.782
 3515SOL    HW210545   3.556   3.257   4.897
 3516SOL     OW10546   2.166   2.414   4.993
 3516SOL    HW110547   2.222   2.366   5.060
 3516SOL    HW210548   2.190   2.384   4.901
 3517SOL     OW10549   2.687   3.425   4.413
 3517SOL    HW110550   2.691   3.454   4.318
 3517SOL    HW210551   2.603   3.375   4.429
 3518SOL     OW10552   3.271   2.096   4.854
 3518SOL    HW110553   3.348   2.051   4.898
 3518SOL    HW210554   3.223   2.154   4.920
 3519SOL     OW10555   2.827   1.903   4.895
 3519SOL    HW110556   2.792   1.825   4.843
 3519SOL    HW210557   2.923   1.886   4.919
 3520SOL     OW10558   2.698   3.148   4.054
 3520SOL    HW110559   2.641   3.071   4.085
 3520SOL    HW210560   2.744   3.189   4.133
 3521SOL     OW10561   2.500   3.414   5.003
 3521SOL    HW110562   2.486   3.493   5.063
 3521SOL    HW210563   2.596   3.410   4.976
 3522SOL     OW10564   3.238   1.930   3.883
 3522SOL    HW110565   3.282   1.889   3.803
 3522SOL    HW210566   3.164   1.871   3.914
 3523SOL     OW10567   3.177   2.317   4.396
 3523SOL    HW110568   3.126   2.403   4.394
 3523SOL    HW210569   3.180   2.282   4.490
 3524SOL     OW10570   3.474   2.084   4.625
 3524SOL    HW110571   3.408   2.098   4.699
 3524SOL    HW210572   3.473   2.164   4.565
 3525SOL     OW10573   1.887   2.948   4.014
 3525SOL    HW110574   1.987   2.949   4.021
 3525SOL    HW210575   1.854   2.854   4.014
 3526SOL     OW10576   2.751   3.514   4.015
 3526SOL    HW110577   2.662   3.492   3.975
 3526SOL    HW210578   2.739   3.587   4.083
 3527SOL     OW10579   2.100   2.493   5.720
 3527SOL    HW110580   2.016   2.497   5.774
 3527SOL    HW210581   2.077   2.485   5.623
 3528SOL     OW10582   3.642   2.467   5.816
 3528SOL    HW110583   3.641   2.490   5.719
 3528SOL    HW210584   3.568   2.402   5.836
 3529SOL     OW10585   2.096   3.545   0.042
 3529SOL    HW110586   2.125   3.609   0.113
 3529SOL    HW210587   2.132   3.574   5.953
 3530SOL     OW10588   2.466   2.824   5.751
 3530SOL    HW110589   2.490   2.890   5.680
 3530SOL    HW210590   2.489   2.862   5.841
 3531SOL     OW10591   3.715   3.607   5.923
 3531SOL    HW110592   3.783   3.561   5.980
 3531SOL    HW210593   3.726   3.706   5.931
 3532SOL     OW10594   1.857   3.484   5.689
 3532SOL    HW110595   1.874   3.388   5.712
 3532SOL    HW210596   1.852   3.538   5.772
 3533SOL     OW10597   3.576   2.799   0.209
 3533SOL    HW110598   3.655   2.762   0.259
 3533SOL    HW210599   3.601   2.815   0.114
 3534SOL     OW10600   3.525   3.001   5.972
 3534SOL    HW110601   3.623   2.984   5.974
 3534SOL    HW210602   3.488   2.993   0.064
 3535SOL     OW10603   3.384   2.862   5.768
 3535SOL    HW110604   3.335   2.778   5.786
 3535SOL    HW210605   3.423   2.897   5.853
 3536SOL     OW10606   2.438   2.580   5.872
 3536SOL    HW110607   2.448   2.659   5.812
 3536SOL    HW210608   2.403   2.611   5.961
 3537SOL     OW10609   2.720   2.221   5.755
 3537SOL    HW110610   2.779   2.244   5.677
 3537SOL    HW210611   2.685   2.129   5.743
 3538SOL     OW10612   2.198   2.798   5.854
 3538SOL    HW110613   2.282   2.811   5.801
 3538SOL    HW210614   2.138   2.733   5.807
 3539SOL     OW10615   3.004   3.651   5.820
 3539SOL    HW110616   2.919   3.606   5.845
 3539SOL    HW210617   3.043   3.607   5.739
 3540SOL     OW10618   3.511   3.213   5.624
 3540SOL    HW110619   3.491   3.307   5.651
 3540SOL    HW210620   3.425   3.163   5.612
 3541SOL     OW10621   2.347   3.641   5.935
 3541SOL    HW110622   2.363   3.677   0.027
 3541SOL    HW210623   2.434   3.624   5.890
 3542SOL     OW10624   2.468   1.974   5.672
 3542SOL    HW110625   2.556   1.926   5.668
 3542SOL    HW210626   2.410   1.943   5.597
 3543SOL     OW10627   3.269   3.053   5.614
 3543SOL    HW110628   3.307   2.973   5.662
 3543SOL    HW210629   3.207   3.102   5.675
 3544SOL     OW10630   2.166   1.892   5.786
 3544SOL    HW110631   2.205   1.966   5.731
 3544SOL    HW210632   2.240   1.845   5.835
 3545SOL     OW10633   2.869   2.374   5.571
 3545SOL    HW110634   2.816   2.458   5.554
 3545SOL    HW210635   2.939   2.392   5.640
 3546SOL     OW10636   3.712   2.684   5.964
 3546SOL    HW110637   3.745   2.627   0.040
 3546SOL    HW210638   3.689   2.625   5.886
 3547SOL     OW10639   2.355   3.275   5.757
 3547SOL    HW110640   2.269   3.253   5.802
 3547SOL    HW210641   2.356   3.234   5.665
 3548SOL     OW10642   3.555   3.204   0.338
 3548SOL    HW110643   3.635   3.147   0.318
 3548SOL    HW210644   3.503   3.219   0.255
 3549SOL     OW10645   3.236   2.456   5.663
 3549SOL    HW110646   3.166   2.415   5.722
 3549SOL    HW210647   3.326   2.437   5.701
 3550SOL     OW10648   2.398   2.117   5.892
 3550SOL    HW110649   2.417   2.057   5.815
 3550SOL    HW210650   2.378   2.209   5.859
 3551SOL     OW10651   2.253   2.987   0.056
 3551SOL    HW110652   2.230   3.073   0.011
 3551SOL    HW210653   2.221   2.911   5.999
 3552SOL     OW10654   3.046   2.361   5.826
 3552SOL    HW110655   3.065   2.264   5.836
 3552SOL    HW210656   2.988   2.392   5.902
 3553SOL     OW10657   3.400   2.158   5.721
 3553SOL    HW110658   3.353   2.070   5.711
 3553SOL    HW210659   3.406   2.183   5.817
 3554SOL     OW10660   3.181   2.712   5.608
 3554SOL    HW110661   3.197   2.613   5.615
 3554SOL    HW210662   3.203   2.743   5.516
 3555SOL     OW10663   1.872   3.182   5.782
 3555SOL    HW110664   1.792   3.193   5.723
 3555SOL    HW210665   1.867   3.093   5.827
 3556SOL     OW10666   2.686   2.474   5.849
 3556SOL    HW110667   2.694   2.377   5.826
 3556SOL    HW210668   2.590   2.496   5.865
 3557SOL     OW10669   2.328   2.354   5.745
 3557SOL    HW110670   2.390   2.423   5.784
 3557SOL    HW210671   2.241   2.397   5.723
 3558SOL     OW10672   3.569   1.946   0.140
 3558SOL    HW110673   3.579   1.994   0.052
 3558SOL    HW210674   3.552   1.849   0.123
 3559SOL     OW10675   2.545   3.470   5.753
 3559SOL    HW110676   2.560   3.488   5.656
 3559SOL    HW210677   2.471   3.403   5.764
 3560SOL     OW10678   3.093   3.488   5.611
 3560SOL    HW110679   3.060   3.400   5.645
 3560SOL    HW210680   3.047   3.509   5.524
 3561SOL     OW10681   2.808   2.743   5.883
 3561SOL    HW110682   2.855   2.780   5.803
 3561SOL    HW210683   2.770   2.653   5.859
 3562SOL     OW10684   3.385   3.522   5.649
 3562SOL    HW110685   3.288   3.499   5.653
 3562SOL    HW210686   3.413   3.532   5.554
 3563SOL     OW10687   2.945   2.953   0.332
 3563SOL    HW110688   2.845   2.944   0.342
 3563SOL    HW210689   2.972   2.926   0.240
 3564SOL     OW10690   2.113   3.239   5.895
 3564SOL    HW110691   2.021   3.218   5.862
 3564SOL    HW210692   2.113   3.331   5.935
 3565SOL     OW10693   1.921   2.219   5.645
 3565SOL    HW110694   1.832   2.200   5.603
 3565SOL    HW210695   1.973   2.283   5.588
 3566SOL     OW10696   1.939   2.021   5.880
 3566SOL    HW110697   1.921   2.062   5.791
 3566SOL    HW210698   2.025   1.970   5.876
 3567SOL     OW10699   3.066   3.224   5.744
 3567SOL    HW110700   2.980   3.194   5.704
 3567SOL    HW210701   3.081   3.177   5.831
 3568SOL     OW10702   3.114   2.129   0.005
 3568SOL    HW110703   3.191   2.089   0.055
 3568SOL    HW210704   3.084   2.212   0.052
 3569SOL     OW10705   2.706   3.259   5.608
 3569SOL    HW110706   2.687   3.284   5.703
 3569SOL    HW210707   2.767   3.327   5.567
 3570SOL     OW10708   2.948   2.837   5.676
 3570SOL    HW110709   2.911   2.879   5.594
 3570SOL    HW210710   3.039   2.800   5.657
 3571SOL     OW10711   3.252   1.937   5.723
 3571SOL    HW110712   3.297   1.865   5.670
 3571SOL    HW210713   3.176   1.897   5.775
 3572SOL     OW10714   1.924   2.927   5.901
 3572SOL    HW110715   2.022   2.909   5.892
 3572SOL    HW210716   1.875   2.840   5.910
 3573SOL     OW10717   2.776   3.507   5.895
 3573SOL    HW110718   2.698   3.477   5.841
 3573SOL    HW210719   2.749   3.582   5.955
 3574SOL     OW10720   2.114   4.396   0.124
 3574SOL    HW110721   2.046   4.325   0.144
 3574SOL    HW210722   2.138   4.393   0.027
 3575SOL     OW10723   2.110   3.993   0.974
 3575SOL    HW110724   2.138   3.956   1.062
 3575SOL    HW210725   2.013   3.976   0.960
 3576SOL     OW10726   1.888   4.112   0.620
 3576SOL    HW110727   1.811   4.147   0.674
 3576SOL    HW210728   1.860   4.029   0.572
 3577SOL     OW10729   2.391   5.012   1.164
 3577SOL    HW110730   2.323   5.034   1.094
 3577SOL    HW210731   2.409   5.093   1.220
 3578SOL     OW10732   3.430   5.252   0.704
 3578SOL    HW110733   3.389   5.214   0.787
 3578SOL    HW210734   3.363   5.251   0.630
 3579SOL     OW10735   2.963   4.430   0.644
 3579SOL    HW110736   3.030   4.503   0.654
 3579SOL    HW210737   2.897   4.436   0.719
 3580SOL     OW10738   3.544   4.327   0.197
 3580SOL    HW110739   3.565   4.312   0.100
 3580SOL    HW210740   3.518   4.240   0.239
 3581SOL     OW10741   2.603   4.888   1.057
 3581SOL    HW110742   2.514   4.910   1.097
 3581SOL    HW210743   2.640   4.970   1.012
 3582SOL     OW10744   2.699   4.535   1.795
 3582SOL    HW110745   2.699   4.625   1.839
 3582SOL    HW210746   2.720   4.546   1.698
 3583SOL     OW10747   2.513   4.704   0.685
 3583SOL    HW110748   2.596   4.701   0.741
 3583SOL    HW210749   2.451   4.774   0.719
 3584SOL     OW10750   2.561   4.873   1.809
 3584SOL    HW110751   2.609   4.961   1.812
 3584SOL    HW210752   2.465   4.890   1.783
 3585SOL     OW10753   2.194   5.167   1.053
 3585SOL    HW110754   2.109   5.129   1.017
 3585SOL    HW210755   2.239   5.220   0.981
 3586SOL     OW10756   3.349   5.252   1.348
 3586SOL    HW110757   3.410   5.331   1.359
 3586SOL    HW210758   3.275   5.258   1.415
 3587SOL     OW10759   2.302   4.147   1.470
 3587SOL    HW110760   2.382   4.089   1.457
 3587SOL    HW210761   2.224   4.091   1.496
 3588SOL     OW10762   3.495   4.166   0.733
 3588SOL    HW110763   3.417   4.203   0.681
 3588SOL    HW210764   3.528   4.236   0.796
 3589SOL     OW10765   2.112   5.421   0.525
 3589SOL    HW110766   2.151   5.508   0.554
 3589SOL    HW210767   2.105   5.419   0.425
 3590SOL     OW10768   2.967   5.061   1.686
 3590SOL    HW110769   3.027   5.066   1.766
 3590SOL    HW210770   2.910   4.979   1.692
 3591SOL     OW10771   2.137   5.154   0.551
 3591SOL    HW110772   2.128   5.254   0.553
 3591SOL    HW210773   2.061   5.113   0.600
 3592SOL     OW10774   2.103   4.801   0.886
 3592SOL    HW110775   2.094   4.708   0.921
 3592SOL    HW210776   2.070   4.866   0.954
 3593SOL     OW10777   2.495   5.505   1.458
 3593SOL    HW110778   2.404   5.486   1.494
 3593SOL    HW210779   2.512   5.603   1.461
 3594SOL     OW10780   2.457   4.669   0.138
 3594SOL    HW110781   2.403   4.744   0.101
 3594SOL    HW210782   2.511   4.702   0.215
 3595SOL     OW10783   3.503   3.868   1.480
 3595SOL    HW110784   3.510   3.957   1.434
 3595SOL    HW210785   3.454   3.877   1.566
 3596SOL     OW10786   1.976   4.355   0.559
 3596SOL    HW110787   1.951   4.260   0.579
 3596SOL    HW210788   1.959   4.412   0.640
 3597SOL     OW10789   3.769   5.464   0.334
 3597SOL    HW110790   3.745   5.426   0.423
 3597SOL    HW210791   3.766   5.564   0.338
 3598SOL     OW10792   1.838   5.319   0.119
 3598SOL    HW110793   1.840   5.223   0.145
 3598SOL    HW210794   1.879   5.374   0.192
 3599SOL     OW10795   3.530   4.624   0.662
 3599SOL    HW110796   3.606   4.588   0.607
 3599SOL    HW210797   3.488   4.702   0.614
 3600SOL     OW10798   3.492   4.840   0.504
 3600SOL    HW110799   3.534   4.848   0.413
 3600SOL    HW210800   3.532   4.909   0.564
 3601SOL     OW10801   1.991   4.460   1.593
 3601SOL    HW110802   2.090   4.457   1.583
 3601SOL    HW210803   1.958   4.553   1.579
 3602SOL     OW10804   2.457   5.103   0.716
 3602SOL    HW110805   2.401   5.021   0.727
 3602SOL    HW210806   2.447   5.137   0.623
 3603SOL     OW10807   3.156   4.939   1.446
 3603SOL    HW110808   3.172   4.881   1.366
 3603SOL    HW210809   3.220   4.912   1.519
 3604SOL     OW10810   2.692   3.730   0.498
 3604SOL    HW110811   2.744   3.814   0.480
 3604SOL    HW210812   2.595   3.753   0.510
 3605SOL     OW10813   2.053   4.683   1.268
 3605SOL    HW110814   2.136   4.638   1.234
 3605SOL    HW210815   1.975   4.621   1.256
 3606SOL     OW10816   3.336   4.784   0.175
 3606SOL    HW110817   3.271   4.717   0.138
 3606SOL    HW210818   3.383   4.744   0.254
 3607SOL     OW10819   3.077   5.545   1.614
 3607SOL    HW110820   3.041   5.579   1.527
 3607SOL    HW210821   3.103   5.449   1.604
 3608SOL     OW10822   2.163   3.962   1.828
 3608SOL    HW110823   2.204   4.052   1.816
 3608SOL    HW210824   2.070   3.972   1.863
 3609SOL     OW10825   3.340   5.126   0.930
 3609SOL    HW110826   3.272   5.141   1.002
 3609SOL    HW210827   3.341   5.029   0.905
 3610SOL     OW10828   3.528   5.459   0.545
 3610SOL    HW110829   3.467   5.449   0.467
 3610SOL    HW210830   3.505   5.391   0.615
 3611SOL     OW10831   2.474   4.437   0.297
 3611SOL    HW110832   2.480   4.515   0.234
 3611SOL    HW210833   2.396   4.451   0.359
 3612SOL     OW10834   3.159   4.089   0.928
 3612SOL    HW110835   3.063   4.062   0.923
 3612SOL    HW210836   3.204   4.039   1.003
 3613SOL     OW10837   3.428   5.390   0.307
 3613SOL    HW110838   3.528   5.385   0.312
 3613SOL    HW210839   3.400   5.396   0.211
 3614SOL     OW10840   2.667   4.327   1.462
 3614SOL    HW110841   2.635   4.292   1.550
 3614SOL    HW210842   2.630   4.269   1.388
 3615SOL     OW10843   3.257   4.250   1.691
 3615SOL    HW110844   3.229   4.282   1.781
 3615SOL    HW210845   3.322   4.174   1.701
 3616SOL     OW10846   2.840   4.594   1.561
 3616SOL    HW110847   2.891   4.517   1.522
 3616SOL    HW210848   2.787   4.639   1.489
 3617SOL     OW10849   2.858   4.090   1.235
 3617SOL    HW110850   2.774   4.141   1.253
 3617SOL    HW210851   2.853   4.047   1.145
 3618SOL     OW10852   2.921   4.407   0.386
 3618SOL    HW110853   2.928   4.415   0.485
 3618SOL    HW210854   2.840   4.354   0.362
 3619SOL     OW10855   1.937   4.509   0.774
 3619SOL    HW110856   2.017   4.497   0.833
 3619SOL    HW210857   1.885   4.590   0.804
 3620SOL     OW10858   1.999   5.578   1.566
 3620SOL    HW110859   1.994   5.552   1.663
 3620SOL    HW210860   1.917   5.628   1.540
 3621SOL     OW10861   2.721   4.045   0.173
 3621SOL    HW110862   2.776   4.103   0.114
 3621SOL    HW210863   2.735   3.949   0.148
 3622SOL     OW10864   3.576   4.339   1.842
 3622SOL    HW110865   3.543   4.424   1.802
 3622SOL    HW210866   3.586   4.270   1.771
 3623SOL     OW10867   3.226   4.883   0.561
 3623SOL    HW110868   3.316   4.869   0.521
 3623SOL    HW210869   3.161   4.912   0.490
 3624SOL     OW10870   2.383   3.893   0.927
 3624SOL    HW110871   2.399   3.931   1.018
 3624SOL    HW210872   2.370   3.968   0.862
 3625SOL     OW10873   2.880   5.193   0.455
 3625SOL    HW110874   2.816   5.258   0.412
 3625SOL    HW210875   2.911   5.230   0.542
 3626SOL     OW10876   2.215   5.510   0.885
 3626SOL    HW110877   2.271   5.427   0.890
 3626SOL    HW210878   2.273   5.590   0.902
 3627SOL     OW10879   3.666   4.783   0.905
 3627SOL    HW110880   3.625   4.814   0.819
 3627SOL    HW210881   3.595   4.773   0.975
 3628SOL     OW10882   3.119   5.270   1.532
 3628SOL    HW110883   3.127   5.172   1.552
 3628SOL    HW210884   3.024   5.293   1.515
 3629SOL     OW10885   2.124   4.652   0.223
 3629SOL    HW110886   2.218   4.686   0.229
 3629SOL    HW210887   2.124   4.562   0.179
 3630SOL     OW10888   3.321   4.466   0.738
 3630SOL    HW110889   3.327   4.406   0.818
 3630SOL    HW210890   3.410   4.509   0.722
 3631SOL     OW10891   2.314   5.013   1.768
 3631SOL    HW110892   2.296   5.017   1.670
 3631SOL    HW210893   2.228   5.006   1.818
 3632SOL     OW10894   3.008   5.455   0.241
 3632SOL    HW110895   2.920   5.429   0.280
 3632SOL    HW210896   3.024   5.403   0.157
 3633SOL     OW10897   2.069   3.985   1.508
 3633SOL    HW110898   1.989   4.032   1.474
 3633SOL    HW210899   2.063   3.976   1.608
 3634SOL     OW10900   3.447   5.076   0.091
 3634SOL    HW110901   3.470   5.168   0.059
 3634SOL    HW210902   3.357   5.050   0.056
 3635SOL     OW10903   2.354   5.445   0.313
 3635SOL    HW110904   2.394   5.502   0.385
 3635SOL    HW210905   2.424   5.423   0.246
 3636SOL     OW10906   3.251   3.853   0.422
 3636SOL    HW110907   3.245   3.820   0.328
 3636SOL    HW210908   3.348   3.860   0.448
 3637SOL     OW10909   2.076   5.511   1.205
 3637SOL    HW110910   2.124   5.431   1.243
 3637SOL    HW210911   2.075   5.506   1.105
 3638SOL     OW10912   2.815   5.433   0.905
 3638SOL    HW110913   2.872   5.366   0.952
 3638SOL    HW210914   2.764   5.387   0.832
 3639SOL     OW10915   2.232   4.406   0.453
 3639SOL    HW110916   2.253   4.310   0.472
 3639SOL    HW210917   2.135   4.424   0.471
 3640SOL     OW10918   3.374   3.972   1.740
 3640SOL    HW110919   3.377   4.000   1.836
 3640SOL    HW210920   3.295   3.913   1.726
 3641SOL     OW10921   2.494   3.818   0.091
 3641SOL    HW110922   2.594   3.817   0.087
 3641SOL    HW210923   2.459   3.891   0.032
 3642SOL     OW10924   2.613   3.996   1.753
 3642SOL    HW110925   2.705   3.957   1.763
 3642SOL    HW210926   2.558   3.970   1.832
 3643SOL     OW10927   2.772   5.256   1.186
 3643SOL    HW110928   2.724   5.212   1.109
 3643SOL    HW210929   2.849   5.198   1.214
 3644SOL     OW10930   3.193   4.340   1.455
 3644SOL    HW110931   3.227   4.309   1.544
 3644SOL    HW210932   3.239   4.424   1.429
 3645SOL     OW10933   2.642   5.115   0.927
 3645SOL    HW110934   2.725   5.157   0.890
 3645SOL    HW210935   2.583   5.087   0.851
 3646SOL     OW10936   2.778   4.227   0.897
 3646SOL    HW110937   2.742   4.200   0.808
 3646SOL    HW210938   2.809   4.146   0.947
 3647SOL     OW10939   2.437   3.793   0.485
 3647SOL    HW110940   2.360   3.786   0.547
 3647SOL    HW210941   2.430   3.878   0.431
 3648SOL     OW10942   3.217   4.951   5.991
 3648SOL    HW110943   3.276   4.877   0.023
 3648SOL    HW210944   3.150   4.974   0.062
 3649SOL     OW10945   2.814   3.958   0.440
 3649SOL    HW110946   2.767   4.006   0.365
 3649SOL    HW210947   2.910   3.987   0.443
 3650SOL     OW10948   2.940   4.381   1.429
 3650SOL    HW110949   2.874   4.307   1.444
 3650SOL    HW210950   3.032   4.347   1.445
 3651SOL     OW10951   3.083   5.289   0.813
 3651SOL    HW110952   3.131   5.313   0.728
 3651SOL    HW210953   3.148   5.288   0.889
 3652SOL     OW10954   2.307   4.879   0.745
 3652SOL    HW110955   2.240   4.842   0.808
 3652SOL    HW210956   2.267   4.887   0.654
 3653SOL     OW10957   3.153   5.542   0.586
 3653SOL    HW110958   3.178   5.607   0.513
 3653SOL    HW210959   3.131   5.594   0.669
 3654SOL     OW10960   2.876   4.248   0.048
 3654SOL    HW110961   2.798   4.290   0.002
 3654SOL    HW210962   2.924   4.318   0.101
 3655SOL     OW10963   1.937   4.263   1.421
 3655SOL    HW110964   2.020   4.251   1.366
 3655SOL    HW210965   1.948   4.342   1.482
 3656SOL     OW10966   2.411   3.962   1.193
 3656SOL    HW110967   2.472   3.893   1.233
 3656SOL    HW210968   2.317   3.942   1.218
 3657SOL     OW10969   2.726   4.133   0.652
 3657SOL    HW110970   2.692   4.199   0.584
 3657SOL    HW210971   2.772   4.058   0.605
 3658SOL     OW10972   2.818   3.803   0.747
 3658SOL    HW110973   2.788   3.769   0.659
 3658SOL    HW210974   2.856   3.728   0.802
 3659SOL     OW10975   3.280   4.872   0.863
 3659SOL    HW110976   3.216   4.813   0.913
 3659SOL    HW210977   3.254   4.876   0.767
 3660SOL     OW10978   3.340   4.298   0.943
 3660SOL    HW110979   3.281   4.218   0.942
 3660SOL    HW210980   3.400   4.295   1.023
 3661SOL     OW10981   3.743   4.536   0.393
 3661SOL    HW110982   3.785   4.467   0.452
 3661SOL    HW210983   3.679   4.492   0.330
 3662SOL     OW10984   2.349   5.091   0.195
 3662SOL    HW110985   2.258   5.094   0.236
 3662SOL    HW210986   2.341   5.078   0.096
 3663SOL     OW10987   3.580   5.016   0.714
 3663SOL    HW110988   3.675   5.020   0.683
 3663SOL    HW210989   3.539   5.107   0.708
 3664SOL     OW10990   3.237   4.334   0.068
 3664SOL    HW110991   3.179   4.296   0.140
 3664SOL    HW210992   3.323   4.284   0.065
 3665SOL     OW10993   2.395   3.998   0.309
 3665SOL    HW110994   2.441   3.943   0.240
 3665SOL    HW210995   2.378   4.090   0.272
 3666SOL     OW10996   3.615   5.010   1.576
 3666SOL    HW110997   3.687   4.943   1.592
 3666SOL    HW210998   3.647   5.101   1.604
 3667SOL     OW10999   2.920   5.056   1.360
 3667SOL    HW111000   2.826   5.036   1.389
 3667SOL    HW211001   2.984   5.018   1.427
 3668SOL     OW11002   3.466   5.393   1.654
 3668SOL    HW111003   3.469   5.414   1.556
 3668SOL    HW211004   3.550   5.346   1.681
 3669SOL     OW11005   2.921   4.899   1.121
 3669SOL    HW111006   2.922   4.961   1.199
 3669SOL    HW211007   2.904   4.951   1.037
 3670SOL     OW11008   3.483   4.806   1.103
 3670SOL    HW111009   3.487   4.886   1.162
 3670SOL    HW211010   3.419   4.823   1.028
 3671SOL     OW11011   2.777   3.795   1.408
 3671SOL    HW111012   2.797   3.767   1.314
 3671SOL    HW211013   2.853   3.849   1.444
 3672SOL     OW11014   2.816   4.826   1.715
 3672SOL    HW111015   2.718   4.828   1.733
 3672SOL    HW211016   2.836   4.756   1.647
 3673SOL     OW11017   2.551   4.778   0.397
 3673SOL    HW111018   2.531   4.760   0.493
 3673SOL    HW211019   2.638   4.735   0.372
 3674SOL     OW11020   2.284   4.521   1.252
 3674SOL    HW111021   2.360   4.527   1.316
 3674SOL    HW211022   2.239   4.432   1.262
 3675SOL     OW11023   3.132   4.142   1.281
 3675SOL    HW111024   3.151   4.223   1.336
 3675SOL    HW211025   3.034   4.137   1.261
 3676SOL     OW11026   1.915   5.263   1.343
 3676SOL    HW111027   1.869   5.341   1.301
 3676SOL    HW211028   2.014   5.272   1.331
 3677SOL     OW11029   2.228   4.861   0.489
 3677SOL    HW111030   2.237   4.927   0.414
 3677SOL    HW211031   2.276   4.777   0.465
 3678SOL     OW11032   2.437   4.254   0.869
 3678SOL    HW111033   2.426   4.326   0.801
 3678SOL    HW211034   2.506   4.282   0.936
 3679SOL     OW11035   3.120   5.086   0.362
 3679SOL    HW111036   3.163   5.159   0.414
 3679SOL    HW211037   3.028   5.069   0.397
 3680SOL     OW11038   3.180   5.191   1.141
 3680SOL    HW111039   3.241   5.208   1.218
 3680SOL    HW211040   3.123   5.111   1.160
 3681SOL     OW11041   3.503   4.357   0.485
 3681SOL    HW111042   3.407   4.365   0.512
 3681SOL    HW211043   3.517   4.402   0.396
 3682SOL     OW11044   2.196   5.265   1.298
 3682SOL    HW111045   2.204   5.223   1.207
 3682SOL    HW211046   2.287   5.293   1.329
 3683SOL     OW11047   2.258   4.446   1.578
 3683SOL    HW111048   2.309   4.504   1.515
 3683SOL    HW211049   2.321   4.388   1.629
 3684SOL     OW11050   3.495   4.550   1.683
 3684SOL    HW111051   3.396   4.548   1.674
 3684SOL    HW211052   3.535   4.595   1.604
 3685SOL     OW11053   2.870   3.867   1.789
 3685SOL    HW111054   2.943   3.917   1.744
 3685SOL    HW211055   2.863   3.775   1.752
 3686SOL     OW11056   2.317   3.724   1.748
 3686SOL    HW111057   2.276   3.681   1.667
 3686SOL    HW211058   2.263   3.804   1.774
 3687SOL     OW11059   2.431   4.569   1.015
 3687SOL    HW111060   2.479   4.656   1.019
 3687SOL    HW211061   2.373   4.559   1.096
 3688SOL     OW11062   3.186   4.559   1.065
 3688SOL    HW111063   3.101   4.566   1.012
 3688SOL    HW211064   3.230   4.471   1.046
 3689SOL     OW11065   3.096   4.240   0.263
 3689SOL    HW111066   3.101   4.160   0.322
 3689SOL    HW211067   3.034   4.307   0.303
 3690SOL     OW11068   2.152   3.918   1.239
 3690SOL    HW111069   2.119   3.930   1.332
 3690SOL    HW211070   2.143   3.821   1.213
 3691SOL     OW11071   1.917   4.992   1.303
 3691SOL    HW111072   1.978   4.954   1.371
 3691SOL    HW211073   1.905   5.091   1.318
 3692SOL     OW11074   2.619   4.361   1.059
 3692SOL    HW111075   2.684   4.322   0.994
 3692SOL    HW211076   2.578   4.444   1.020
 3693SOL     OW11077   3.647   4.691   1.846
 3693SOL    HW111078   3.602   4.626   1.785
 3693SOL    HW211079   3.593   4.701   1.929
 3694SOL     OW11080   2.219   3.784   0.619
 3694SOL    HW111081   2.179   3.872   0.642
 3694SOL    HW211082   2.206   3.721   0.695
 3695SOL     OW11083   3.501   4.106   0.361
 3695SOL    HW111084   3.540   4.024   0.405
 3695SOL    HW211085   3.500   4.181   0.427
 3696SOL     OW11086   2.899   4.503   0.958
 3696SOL    HW111087   2.896   4.514   1.057
 3696SOL    HW211088   2.856   4.416   0.932
 3697SOL     OW11089   2.857   5.310   1.711
 3697SOL    HW111090   2.820   5.347   1.626
 3697SOL    HW211091   2.886   5.215   1.697
 3698SOL     OW11092   3.701   5.255   1.648
 3698SOL    HW111093   3.708   5.285   1.553
 3698SOL    HW211094   3.792   5.259   1.690
 3699SOL     OW11095   2.218   4.658   1.774
 3699SOL    HW111096   2.280   4.663   1.853
 3699SOL    HW211097   2.239   4.575   1.722
 3700SOL     OW11098   3.344   4.009   0.163
 3700SOL    HW111099   3.322   3.911   0.169
 3700SOL    HW211100   3.400   4.035   0.242
 3701SOL     OW11101   3.191   4.587   0.041
 3701SOL    HW111102   3.206   4.489   0.059
 3701SOL    HW211103   3.154   4.598   5.949
 3702SOL     OW11104   2.929   5.081   0.897
 3702SOL    HW111105   2.927   5.007   0.829
 3702SOL    HW211106   2.982   5.158   0.861
 3703SOL     OW11107   2.157   4.498   0.961
 3703SOL    HW111108   2.248   4.532   0.936
 3703SOL    HW211109   2.164   4.402   0.987
 3704SOL     OW11110   2.189   4.238   1.006
 3704SOL    HW111111   2.154   4.145   0.993
 3704SOL    HW211112   2.269   4.252   0.948
 3705SOL     OW11113   3.051   4.072   1.696
 3705SOL    HW111114   2.975   4.124   1.735
 3705SOL    HW211115   3.126   4.135   1.673
 3706SOL     OW11116   3.005   3.911   1.490
 3706SOL    HW111117   3.017   3.977   1.565
 3706SOL    HW211118   3.044   3.949   1.406
 3707SOL     OW11119   1.955   5.528   0.923
 3707SOL    HW111120   1.912   5.446   0.886
 3707SOL    HW211121   2.051   5.531   0.896
 3708SOL     OW11122   2.372   5.302   0.906
 3708SOL    HW111123   2.449   5.365   0.914
 3708SOL    HW211124   2.391   5.233   0.838
 3709SOL     OW11125   2.851   4.518   1.213
 3709SOL    HW111126   2.908   4.510   1.295
 3709SOL    HW211127   2.772   4.457   1.220
 3710SOL     OW11128   1.896   4.280   1.127
 3710SOL    HW111129   1.977   4.287   1.070
 3710SOL    HW211130   1.922   4.259   1.221
 3711SOL     OW11131   2.100   4.247   1.728
 3711SOL    HW111132   2.167   4.225   1.657
 3711SOL    HW211133   2.045   4.326   1.700
 3712SOL     OW11134   3.236   4.641   1.657
 3712SOL    HW111135   3.267   4.736   1.664
 3712SOL    HW211136   3.230   4.616   1.560
 3713SOL     OW11137   2.695   4.291   0.322
 3713SOL    HW111138   2.679   4.210   0.266
 3713SOL    HW211139   2.612   4.347   0.324
 3714SOL     OW11140   3.494   4.291   1.160
 3714SOL    HW111141   3.483   4.243   1.247
 3714SOL    HW211142   3.590   4.288   1.133
 3715SOL     OW11143   2.089   5.238   1.740
 3715SOL    HW111144   2.098   5.312   1.806
 3715SOL    HW211145   2.082   5.151   1.788
 3716SOL     OW11146   2.578   4.180   1.257
 3716SOL    HW111147   2.521   4.099   1.241
 3716SOL    HW211148   2.572   4.241   1.178
 3717SOL     OW11149   2.771   5.368   1.462
 3717SOL    HW111150   2.777   5.321   1.374
 3717SOL    HW211151   2.757   5.466   1.447
 3718SOL     OW11152   2.331   4.220   0.199
 3718SOL    HW111153   2.390   4.294   0.233
 3718SOL    HW211154   2.236   4.252   0.198
 3719SOL     OW11155   2.065   4.850   1.471
 3719SOL    HW111156   2.032   4.808   1.555
 3719SOL    HW211157   2.057   4.785   1.395
 3720SOL     OW11158   3.163   4.766   1.233
 3720SOL    HW111159   3.186   4.694   1.167
 3720SOL    HW211160   3.068   4.794   1.220
 3721SOL     OW11161   3.196   4.588   0.335
 3721SOL    HW111162   3.099   4.588   0.360
 3721SOL    HW211163   3.214   4.513   0.271
 3722SOL     OW11164   3.637   5.449   1.138
 3722SOL    HW111165   3.705   5.474   1.070
 3722SOL    HW211166   3.609   5.354   1.124
 3723SOL     OW11167   3.087   5.446   1.156
 3723SOL    HW111168   3.146   5.508   1.106
 3723SOL    HW211169   3.120   5.352   1.145
 3724SOL     OW11170   1.970   4.985   1.038
 3724SOL    HW111171   1.957   4.979   1.137
 3724SOL    HW211172   1.895   4.936   0.992
 3725SOL     OW11173   2.564   5.382   1.744
 3725SOL    HW111174   2.477   5.428   1.729
 3725SOL    HW211175   2.617   5.383   1.659
 3726SOL     OW11176   2.797   3.790   0.124
 3726SOL    HW111177   2.862   3.813   0.051
 3726SOL    HW211178   2.847   3.760   0.205
 3727SOL     OW11179   3.618   3.864   0.509
 3727SOL    HW111180   3.695   3.858   0.445
 3727SOL    HW211181   3.589   3.772   0.535
 3728SOL     OW11182   3.215   5.306   0.475
 3728SOL    HW111183   3.269   5.321   0.393
 3728SOL    HW211184   3.183   5.394   0.511
 3729SOL     OW11185   1.984   5.510   1.825
 3729SOL    HW111186   1.916   5.445   1.859
 3729SOL    HW211187   2.025   5.559   1.903
 3730SOL     OW11188   3.134   4.628   0.649
 3730SOL    HW111189   3.203   4.567   0.687
 3730SOL    HW211190   3.177   4.695   0.588
 3731SOL     OW11191   2.648   4.975   1.398
 3731SOL    HW111192   2.623   5.026   1.480
 3731SOL    HW211193   2.582   4.996   1.325
 3732SOL     OW11194   2.526   5.322   0.142
 3732SOL    HW111195   2.575   5.280   0.066
 3732SOL    HW211196   2.477   5.251   0.194
 3733SOL     OW11197   3.503   5.487   1.381
 3733SOL    HW111198   3.549   5.480   1.292
 3733SOL    HW211199   3.460   5.577   1.391
 3734SOL     OW11200   3.730   3.899   0.951
 3734SOL    HW111201   3.743   3.801   0.937
 3734SOL    HW211202   3.635   3.923   0.929
 3735SOL     OW11203   2.122   4.015   0.695
 3735SOL    HW111204   2.037   4.059   0.668
 3735SOL    HW211205   2.128   4.014   0.795
 3736SOL     OW11206   3.110   5.307   0.016
 3736SOL    HW111207   3.081   5.222   0.060
 3736SOL    HW211208   3.044   5.334   5.947
 3737SOL     OW11209   2.699   4.718   1.373
 3737SOL    HW111210   2.748   4.708   1.286
 3737SOL    HW211211   2.674   4.814   1.385
 3738SOL     OW11212   2.760   4.632   0.279
 3738SOL    HW111213   2.834   4.669   0.224
 3738SOL    HW211214   2.783   4.540   0.309
 3739SOL     OW11215   3.363   5.391   0.052
 3739SOL    HW111216   3.273   5.347   0.055
 3739SOL    HW211217   3.397   5.391   5.958
 3740SOL     OW11218   2.230   5.043   1.524
 3740SOL    HW111219   2.228   5.101   1.442
 3740SOL    HW211220   2.167   4.966   1.512
 3741SOL     OW11221   3.483   5.017   1.296
 3741SOL    HW111222   3.532   4.997   1.381
 3741SOL    HW211223   3.418   5.092   1.313
 3742SOL     OW11224   2.885   4.870   0.728
 3742SOL    HW111225   2.835   4.791   0.763
 3742SOL    HW211226   2.944   4.842   0.652
 3743SOL     OW11227   2.839   3.970   0.980
 3743SOL    HW111228   2.816   3.944   0.887
 3743SOL    HW211229   2.863   3.889   1.033
 3744SOL     OW11230   2.487   5.198   0.450
 3744SOL    HW111231   2.502   5.121   0.388
 3744SOL    HW211232   2.409   5.252   0.417
 3745SOL     OW11233   3.578   4.116   1.356
 3745SOL    HW111234   3.647   4.183   1.382
 3745SOL    HW211235   3.617   4.052   1.289
 3746SOL     OW11236   2.090   5.089   0.295
 3746SOL    HW111237   2.005   5.037   0.292
 3746SOL    HW211238   2.105   5.123   0.388
 3747SOL     OW11239   1.985   4.782   1.718
 3747SOL    HW111240   1.907   4.745   1.768
 3747SOL    HW211241   2.068   4.732   1.744
 3748SOL     OW11242   2.549   3.929   1.479
 3748SOL    HW111243   2.635   3.888   1.450
 3748SOL    HW211244   2.561   3.976   1.566
 3749SOL     OW11245   1.972   4.106   0.026
 3749SOL    HW111246   1.957   4.010   0.003
 3749SOL    HW211247   1.992   4.158   5.943
 3750SOL     OW11248   3.295   4.583   1.388
 3750SOL    HW111249   3.233   4.644   1.339
 3750SOL    HW211250   3.384   4.583   1.343
 3751SOL     OW11251   1.937   3.856   0.317
 3751SOL    HW111252   1.872   3.900   0.255
 3751SOL    HW211253   2.024   3.842   0.270
 3752SOL     OW11254   2.998   5.083   0.129
 3752SOL    HW111255   2.922   5.019   0.137
 3752SOL    HW211256   3.052   5.081   0.213
 3753SOL     OW11257   2.486   4.524   1.441
 3753SOL    HW111258   2.536   4.606   1.412
 3753SOL    HW211259   2.550   4.451   1.462
 3754SOL     OW11260   3.353   5.517   0.995
 3754SOL    HW111261   3.362   5.586   0.923
 3754SOL    HW211262   3.442   5.505   1.041
 3755SOL     OW11263   2.583   4.274   1.710
 3755SOL    HW111264   2.605   4.338   1.784
 3755SOL    HW211265   2.604   4.181   1.739
 3756SOL     OW11266   3.342   4.918   1.637
 3756SOL    HW111267   3.314   4.937   1.730
 3756SOL    HW211268   3.426   4.967   1.616
 3757SOL     OW11269   2.228   5.446   1.541
 3757SOL    HW111270   2.145   5.501   1.538
 3757SOL    HW211271   2.205   5.352   1.565
 3758SOL     OW11272   3.536   4.585   1.246
 3758SOL    HW111273   3.530   4.505   1.186
 3758SOL    HW211274   3.526   4.668   1.191
 3759SOL     OW11275   3.072   4.047   0.440
 3759SOL    HW111276   3.142   3.978   0.420
 3759SOL    HW211277   3.092   4.091   0.527
 3760SOL     OW11278   2.389   4.452   0.693
 3760SOL    HW111279   2.443   4.536   0.684
 3760SOL    HW211280   2.331   4.441   0.612
 3761SOL     OW11281   3.598   4.111   1.658
 3761SOL    HW111282   3.605   4.098   1.559
 3761SOL    HW211283   3.526   4.051   1.694
 3762SOL     OW11284   3.614   4.683   1.478
 3762SOL    HW111285   3.615   4.780   1.455
 3762SOL    HW211286   3.593   4.629   1.397
 3763SOL     OW11287   2.679   5.157   0.000
 3763SOL    HW111288   2.711   5.100   0.076
 3763SOL    HW211289   2.754   5.216   5.970
 3764SOL     OW11290   2.547   5.516   0.902
 3764SOL    HW111291   2.494   5.597   0.924
 3764SOL    HW211292   2.644   5.534   0.916
 3765SOL     OW11293   2.719   4.690   0.875
 3765SOL    HW111294   2.792   4.628   0.903
 3765SOL    HW211295   2.692   4.747   0.952
 3766SOL     OW11296   2.953   4.732   0.089
 3766SOL    HW111297   2.889   4.698   0.020
 3766SOL    HW211298   3.041   4.686   0.079
 3767SOL     OW11299   3.683   5.311   0.850
 3767SOL    HW111300   3.605   5.311   0.788
 3767SOL    HW211301   3.665   5.246   0.924
 3768SOL     OW11302   2.066   4.995   1.884
 3768SOL    HW111303   2.025   4.916   1.838
 3768SOL    HW211304   2.044   4.991   1.981
 3769SOL     OW11305   1.976   4.949   0.642
 3769SOL    HW111306   1.990   4.919   0.736
 3769SOL    HW211307   2.040   4.902   0.582
 3770SOL     OW11308   2.587   5.109   1.614
 3770SOL    HW111309   2.494   5.111   1.650
 3770SOL    HW211310   2.645   5.171   1.668
 3771SOL     OW11311   3.678   3.893   1.229
 3771SOL    HW111312   3.682   3.799   1.263
 3771SOL    HW211313   3.708   3.895   1.134
 3772SOL     OW11314   2.280   4.156   0.529
 3772SOL    HW111315   2.318   4.083   0.473
 3772SOL    HW211316   2.216   4.118   0.596
 3773SOL     OW11317   3.556   5.197   1.091
 3773SOL    HW111318   3.480   5.174   1.031
 3773SOL    HW211319   3.561   5.131   1.166
 3774SOL     OW11320   2.169   4.274   1.276
 3774SOL    HW111321   2.231   4.227   1.338
 3774SOL    HW211322   2.187   4.245   1.182
 3775SOL     OW11323   2.668   5.281   0.703
 3775SOL    HW111324   2.653   5.334   0.620
 3775SOL    HW211325   2.589   5.221   0.719
 3776SOL     OW11326   3.258   3.951   1.128
 3776SOL    HW111327   3.345   3.917   1.165
 3776SOL    HW211328   3.212   4.006   1.197
 3777SOL     OW11329   2.901   3.752   1.136
 3777SOL    HW111330   2.828   3.694   1.102
 3777SOL    HW211331   2.982   3.697   1.154
 3778SOL     OW11332   2.685   5.007   0.296
 3778SOL    HW111333   2.613   4.947   0.330
 3778SOL    HW211334   2.726   5.056   0.374
 3779SOL     OW11335   2.510   5.282   1.282
 3779SOL    HW111336   2.499   5.361   1.342
 3779SOL    HW211337   2.604   5.281   1.247
 3780SOL     OW11338   3.230   3.770   0.172
 3780SOL    HW111339   3.282   3.705   0.117
 3780SOL    HW211340   3.147   3.726   0.206
 3781SOL     OW11341   3.157   4.154   0.679
 3781SOL    HW111342   3.118   4.246   0.676
 3781SOL    HW211343   3.165   4.123   0.774
 3782SOL     OW11344   3.476   3.954   0.901
 3782SOL    HW111345   3.400   3.960   0.964
 3782SOL    HW211346   3.467   4.026   0.831
 3783SOL     OW11347   1.905   4.872   0.321
 3783SOL    HW111348   1.981   4.838   0.266
 3783SOL    HW211349   1.887   4.808   0.396
 3784SOL     OW11350   2.734   5.382   0.318
 3784SOL    HW111351   2.660   5.377   0.251
 3784SOL    HW211352   2.715   5.455   0.384
 3785SOL     OW11353   2.119   4.372   1.995
 3785SOL    HW111354   2.034   4.395   2.044
 3785SOL    HW211355   2.096   4.327   1.909
 3786SOL     OW11356   2.110   3.992   2.826
 3786SOL    HW111357   2.149   3.963   2.913
 3786SOL    HW211358   2.015   3.963   2.820
 3787SOL     OW11359   1.885   4.113   2.493
 3787SOL    HW111360   1.814   4.143   2.556
 3787SOL    HW211361   1.847   4.046   2.429
 3788SOL     OW11362   2.385   5.012   3.021
 3788SOL    HW111363   2.322   5.043   2.949
 3788SOL    HW211364   2.398   5.085   3.088
 3789SOL     OW11365   3.425   5.248   2.575
 3789SOL    HW111366   3.381   5.216   2.659
 3789SOL    HW211367   3.355   5.258   2.504
 3790SOL     OW11368   2.982   4.421   2.502
 3790SOL    HW111369   3.038   4.501   2.518
 3790SOL    HW211370   2.905   4.420   2.566
 3791SOL     OW11371   3.552   4.357   2.105
 3791SOL    HW111372   3.570   4.360   2.007
 3791SOL    HW211373   3.522   4.265   2.130
 3792SOL     OW11374   2.602   4.884   2.923
 3792SOL    HW111375   2.512   4.907   2.960
 3792SOL    HW211376   2.639   4.963   2.875
 3793SOL     OW11377   2.700   4.538   3.661
 3793SOL    HW111378   2.697   4.628   3.705
 3793SOL    HW211379   2.730   4.549   3.566
 3794SOL     OW11380   2.527   4.709   2.558
 3794SOL    HW111381   2.602   4.713   2.624
 3794SOL    HW211382   2.457   4.776   2.583
 3795SOL     OW11383   2.557   4.873   3.670
 3795SOL    HW111384   2.606   4.960   3.676
 3795SOL    HW211385   2.462   4.889   3.644
 3796SOL     OW11386   2.194   5.182   2.915
 3796SOL    HW111387   2.116   5.140   2.870
 3796SOL    HW211388   2.246   5.237   2.848
 3797SOL     OW11389   3.344   5.252   3.209
 3797SOL    HW111390   3.406   5.329   3.225
 3797SOL    HW211391   3.269   5.255   3.274
 3798SOL     OW11392   2.297   4.151   3.327
 3798SOL    HW111393   2.379   4.094   3.320
 3798SOL    HW211394   2.219   4.095   3.355
 3799SOL     OW11395   3.522   4.194   2.631
 3799SOL    HW111396   3.460   4.231   2.562
 3799SOL    HW211397   3.556   4.268   2.689
 3800SOL     OW11398   2.093   5.432   2.369
 3800SOL    HW111399   2.127   5.515   2.415
 3800SOL    HW211400   2.144   5.418   2.284
 3801SOL     OW11401   2.971   5.063   3.553
 3801SOL    HW111402   3.030   5.066   3.634
 3801SOL    HW211403   2.915   4.979   3.556
 3802SOL     OW11404   2.133   5.165   2.430
 3802SOL    HW111405   2.113   5.263   2.426
 3802SOL    HW211406   2.050   5.115   2.456
 3803SOL     OW11407   2.101   4.809   2.732
 3803SOL    HW111408   2.101   4.717   2.771
 3803SOL    HW211409   2.065   4.873   2.800
 3804SOL     OW11410   2.500   5.508   3.315
 3804SOL    HW111411   2.408   5.487   3.348
 3804SOL    HW211412   2.515   5.607   3.316
 3805SOL     OW11413   2.463   4.667   2.024
 3805SOL    HW111414   2.480   4.728   1.947
 3805SOL    HW211415   2.514   4.700   2.104
 3806SOL     OW11416   3.515   3.869   3.348
 3806SOL    HW111417   3.513   3.955   3.297
 3806SOL    HW211418   3.455   3.877   3.428
 3807SOL     OW11419   1.982   4.367   2.413
 3807SOL    HW111420   1.959   4.273   2.439
 3807SOL    HW211421   1.975   4.426   2.493
 3808SOL     OW11422   3.731   5.462   2.206
 3808SOL    HW111423   3.788   5.441   2.286
 3808SOL    HW211424   3.737   5.559   2.185
 3809SOL     OW11425   1.841   5.326   1.965
 3809SOL    HW111426   1.849   5.228   1.983
 3809SOL    HW211427   1.853   5.376   2.051
 3810SOL     OW11428   3.534   4.656   2.499
 3810SOL    HW111429   3.613   4.610   2.459
 3810SOL    HW211430   3.509   4.734   2.442
 3811SOL     OW11431   3.507   4.884   2.348
 3811SOL    HW111432   3.588   4.862   2.294
 3811SOL    HW211433   3.535   4.922   2.436
 3812SOL     OW11434   1.990   4.457   3.454
 3812SOL    HW111435   2.090   4.458   3.452
 3812SOL    HW211436   1.955   4.548   3.435
 3813SOL     OW11437   2.451   5.108   2.580
 3813SOL    HW111438   2.397   5.025   2.591
 3813SOL    HW211439   2.443   5.141   2.486
 3814SOL     OW11440   3.146   4.938   3.305
 3814SOL    HW111441   3.170   4.886   3.223
 3814SOL    HW211442   3.208   4.914   3.380
 3815SOL     OW11443   2.680   3.697   2.333
 3815SOL    HW111444   2.725   3.786   2.335
 3815SOL    HW211445   2.581   3.709   2.342
 3816SOL     OW11446   2.055   4.675   3.137
 3816SOL    HW111447   2.136   4.632   3.097
 3816SOL    HW211448   1.974   4.620   3.114
 3817SOL     OW11449   3.435   4.691   2.051
 3817SOL    HW111450   3.356   4.638   2.081
 3817SOL    HW211451   3.447   4.770   2.111
 3818SOL     OW11452   3.082   5.546   3.474
 3818SOL    HW111453   3.036   5.577   3.390
 3818SOL    HW211454   3.108   5.450   3.464
 3819SOL     OW11455   2.164   3.959   3.689
 3819SOL    HW111456   2.203   4.051   3.680
 3819SOL    HW211457   2.070   3.965   3.723
 3820SOL     OW11458   3.341   5.138   2.799
 3820SOL    HW111459   3.269   5.159   2.865
 3820SOL    HW211460   3.342   5.040   2.781
 3821SOL     OW11461   3.508   5.479   2.445
 3821SOL    HW111462   3.474   5.448   2.356
 3821SOL    HW211463   3.500   5.405   2.511
 3822SOL     OW11464   2.484   4.423   2.154
 3822SOL    HW111465   2.481   4.500   2.091
 3822SOL    HW211466   2.413   4.434   2.223
 3823SOL     OW11467   3.164   4.087   2.789
 3823SOL    HW111468   3.069   4.059   2.779
 3823SOL    HW211469   3.205   4.041   2.868
 3824SOL     OW11470   3.459   5.389   2.192
 3824SOL    HW111471   3.558   5.400   2.201
 3824SOL    HW211472   3.434   5.393   2.096
 3825SOL     OW11473   2.660   4.325   3.318
 3825SOL    HW111474   2.630   4.294   3.408
 3825SOL    HW211475   2.620   4.266   3.248
 3826SOL     OW11476   3.254   4.247   3.554
 3826SOL    HW111477   3.227   4.283   3.643
 3826SOL    HW211478   3.320   4.172   3.566
 3827SOL     OW11479   2.849   4.598   3.430
 3827SOL    HW111480   2.901   4.521   3.392
 3827SOL    HW211481   2.797   4.643   3.357
 3828SOL     OW11482   2.852   4.088   3.108
 3828SOL    HW111483   2.771   4.145   3.123
 3828SOL    HW211484   2.849   4.049   3.016
 3829SOL     OW11485   2.923   4.414   2.229
 3829SOL    HW111486   2.935   4.429   2.327
 3829SOL    HW211487   2.841   4.360   2.214
 3830SOL     OW11488   1.958   4.538   2.628
 3830SOL    HW111489   2.037   4.516   2.687
 3830SOL    HW211490   1.905   4.611   2.670
 3831SOL     OW11491   2.007   5.577   3.445
 3831SOL    HW111492   2.005   5.548   3.541
 3831SOL    HW211493   1.925   5.631   3.425
 3832SOL     OW11494   2.733   4.061   2.016
 3832SOL    HW111495   2.779   4.120   1.950
 3832SOL    HW211496   2.771   3.969   2.011
 3833SOL     OW11497   3.577   4.335   3.696
 3833SOL    HW111498   3.541   4.424   3.665
 3833SOL    HW211499   3.585   4.274   3.618
 3834SOL     OW11500   3.242   4.882   2.428
 3834SOL    HW111501   3.328   4.875   2.379
 3834SOL    HW211502   3.172   4.921   2.367
 3835SOL     OW11503   2.376   3.884   2.778
 3835SOL    HW111504   2.402   3.911   2.871
 3835SOL    HW211505   2.367   3.965   2.721
 3836SOL     OW11506   2.888   5.217   2.308
 3836SOL    HW111507   2.823   5.266   2.251
 3836SOL    HW211508   2.902   5.266   2.394
 3837SOL     OW11509   2.208   5.512   2.741
 3837SOL    HW111510   2.267   5.432   2.745
 3837SOL    HW211511   2.261   5.594   2.762
 3838SOL     OW11512   3.677   4.786   2.764
 3838SOL    HW111513   3.645   4.835   2.684
 3838SOL    HW211514   3.605   4.781   2.832
 3839SOL     OW11515   3.120   5.272   3.393
 3839SOL    HW111516   3.124   5.175   3.418
 3839SOL    HW211517   3.026   5.298   3.374
 3840SOL     OW11518   2.175   4.714   2.097
 3840SOL    HW111519   2.275   4.713   2.094
 3840SOL    HW211520   2.139   4.623   2.078
 3841SOL     OW11521   3.319   4.455   2.587
 3841SOL    HW111522   3.312   4.403   2.673
 3841SOL    HW211523   3.406   4.503   2.585
 3842SOL     OW11524   2.312   5.010   3.630
 3842SOL    HW111525   2.295   5.020   3.532
 3842SOL    HW211526   2.226   4.997   3.678
 3843SOL     OW11527   3.028   5.504   2.086
 3843SOL    HW111528   2.941   5.474   2.127
 3843SOL    HW211529   3.050   5.444   2.009
 3844SOL     OW11530   2.064   3.981   3.376
 3844SOL    HW111531   1.983   4.028   3.343
 3844SOL    HW211532   2.063   3.977   3.476
 3845SOL     OW11533   3.450   5.086   1.998
 3845SOL    HW111534   3.440   5.180   1.965
 3845SOL    HW211535   3.385   5.027   1.950
 3846SOL     OW11536   2.317   5.434   2.206
 3846SOL    HW111537   2.358   5.507   2.262
 3846SOL    HW211538   2.381   5.409   2.133
 3847SOL     OW11539   3.230   3.855   2.281
 3847SOL    HW111540   3.229   3.836   2.183
 3847SOL    HW211541   3.325   3.869   2.312
 3848SOL     OW11542   2.070   5.515   3.068
 3848SOL    HW111543   2.122   5.437   3.102
 3848SOL    HW211544   2.065   5.511   2.968
 3849SOL     OW11545   2.812   5.429   2.757
 3849SOL    HW111546   2.855   5.363   2.818
 3849SOL    HW211547   2.760   5.380   2.687
 3850SOL     OW11548   2.249   4.413   2.322
 3850SOL    HW111549   2.262   4.315   2.339
 3850SOL    HW211550   2.155   4.439   2.341
 3851SOL     OW11551   3.374   3.973   3.602
 3851SOL    HW111552   3.379   4.000   3.699
 3851SOL    HW211553   3.296   3.913   3.589
 3852SOL     OW11554   2.469   3.820   1.930
 3852SOL    HW111555   2.558   3.775   1.937
 3852SOL    HW211556   2.418   3.782   1.853
 3853SOL     OW11557   2.612   3.997   3.618
 3853SOL    HW111558   2.704   3.957   3.625
 3853SOL    HW211559   2.558   3.971   3.698
 3854SOL     OW11560   2.775   5.258   3.046
 3854SOL    HW111561   2.728   5.208   2.973
 3854SOL    HW211562   2.849   5.201   3.083
 3855SOL     OW11563   3.190   4.339   3.316
 3855SOL    HW111564   3.229   4.309   3.402
 3855SOL    HW211565   3.231   4.426   3.288
 3856SOL     OW11566   2.637   5.109   2.788
 3856SOL    HW111567   2.720   5.147   2.747
 3856SOL    HW211568   2.573   5.083   2.715
 3857SOL     OW11569   2.784   4.232   2.770
 3857SOL    HW111570   2.743   4.209   2.682
 3857SOL    HW211571   2.816   4.148   2.814
 3858SOL     OW11572   2.432   3.791   2.339
 3858SOL    HW111573   2.353   3.790   2.400
 3858SOL    HW211574   2.438   3.881   2.294
 3859SOL     OW11575   3.260   4.912   1.888
 3859SOL    HW111576   3.291   4.819   1.909
 3859SOL    HW211577   3.194   4.942   1.958
 3860SOL     OW11578   2.151   3.765   2.061
 3860SOL    HW111579   2.202   3.824   1.999
 3860SOL    HW211580   2.213   3.704   2.109
 3861SOL     OW11581   2.799   3.945   2.335
 3861SOL    HW111582   2.750   3.998   2.266
 3861SOL    HW211583   2.893   3.977   2.341
 3862SOL     OW11584   2.933   4.377   3.302
 3862SOL    HW111585   2.860   4.308   3.304
 3862SOL    HW211586   3.022   4.331   3.306
 3863SOL     OW11587   3.067   5.269   2.635
 3863SOL    HW111588   3.099   5.317   2.553
 3863SOL    HW211589   3.136   5.275   2.706
 3864SOL     OW11590   2.318   4.868   2.600
 3864SOL    HW111591   2.238   4.839   2.653
 3864SOL    HW211592   2.297   4.861   2.502
 3865SOL     OW11593   3.160   5.538   2.457
 3865SOL    HW111594   3.180   5.602   2.383
 3865SOL    HW211595   3.120   5.588   2.534
 3866SOL     OW11596   2.884   4.238   1.818
 3866SOL    HW111597   2.835   4.325   1.809
 3866SOL    HW211598   2.943   4.242   1.899
 3867SOL     OW11599   1.940   4.260   3.284
 3867SOL    HW111600   2.021   4.247   3.228
 3867SOL    HW211601   1.952   4.341   3.343
 3868SOL     OW11602   2.418   3.944   3.046
 3868SOL    HW111603   2.478   3.881   3.096
 3868SOL    HW211604   2.325   3.937   3.082
 3869SOL     OW11605   2.711   4.139   2.527
 3869SOL    HW111606   2.663   4.188   2.454
 3869SOL    HW211607   2.760   4.061   2.488
 3870SOL     OW11608   2.835   3.795   2.606
 3870SOL    HW111609   2.794   3.766   2.520
 3870SOL    HW211610   2.857   3.715   2.661
 3871SOL     OW11611   3.305   4.869   2.741
 3871SOL    HW111612   3.219   4.823   2.765
 3871SOL    HW211613   3.317   4.865   2.642
 3872SOL     OW11614   3.326   4.317   2.820
 3872SOL    HW111615   3.281   4.228   2.815
 3872SOL    HW211616   3.399   4.314   2.889
 3873SOL     OW11617   3.753   4.534   2.225
 3873SOL    HW111618   3.785   4.476   2.300
 3873SOL    HW211619   3.683   4.484   2.173
 3874SOL     OW11620   2.354   5.122   2.051
 3874SOL    HW111621   2.262   5.108   2.087
 3874SOL    HW211622   2.356   5.098   1.954
 3875SOL     OW11623   3.586   5.013   2.577
 3875SOL    HW111624   3.676   5.024   2.534
 3875SOL    HW211625   3.535   5.099   2.570
 3876SOL     OW11626   3.236   4.315   1.947
 3876SOL    HW111627   3.166   4.275   2.005
 3876SOL    HW211628   3.326   4.290   1.982
 3877SOL     OW11629   2.414   4.011   2.179
 3877SOL    HW111630   2.422   3.941   2.108
 3877SOL    HW211631   2.387   4.098   2.137
 3878SOL     OW11632   3.608   5.004   3.435
 3878SOL    HW111633   3.681   4.938   3.452
 3878SOL    HW211634   3.642   5.096   3.456
 3879SOL     OW11635   2.916   5.059   3.227
 3879SOL    HW111636   2.824   5.032   3.254
 3879SOL    HW211637   2.983   5.016   3.288
 3880SOL     OW11638   3.471   5.392   3.517
 3880SOL    HW111639   3.468   5.419   3.421
 3880SOL    HW211640   3.557   5.344   3.535
 3881SOL     OW11641   2.919   4.891   2.986
 3881SOL    HW111642   2.929   4.952   3.064
 3881SOL    HW211643   2.903   4.946   2.903
 3882SOL     OW11644   3.493   4.815   2.956
 3882SOL    HW111645   3.489   4.893   3.019
 3882SOL    HW211646   3.423   4.827   2.885
 3883SOL     OW11647   2.776   3.798   3.280
 3883SOL    HW111648   2.794   3.771   3.185
 3883SOL    HW211649   2.852   3.852   3.315
 3884SOL     OW11650   2.820   4.824   3.573
 3884SOL    HW111651   2.721   4.834   3.589
 3884SOL    HW211652   2.836   4.750   3.509
 3885SOL     OW11653   2.573   4.792   2.266
 3885SOL    HW111654   2.560   4.771   2.363
 3885SOL    HW211655   2.656   4.746   2.233
 3886SOL     OW11656   2.284   4.521   3.108
 3886SOL    HW111657   2.348   4.533   3.183
 3886SOL    HW211658   2.240   4.431   3.116
 3887SOL     OW11659   3.140   4.156   3.134
 3887SOL    HW111660   3.161   4.233   3.194
 3887SOL    HW211661   3.043   4.159   3.108
 3888SOL     OW11662   1.916   5.262   3.216
 3888SOL    HW111663   1.864   5.329   3.163
 3888SOL    HW211664   2.014   5.278   3.202
 3889SOL     OW11665   2.246   4.854   2.343
 3889SOL    HW111666   2.230   4.927   2.276
 3889SOL    HW211667   2.267   4.769   2.296
 3890SOL     OW11668   2.445   4.251   2.728
 3890SOL    HW111669   2.433   4.324   2.660
 3890SOL    HW211670   2.511   4.279   2.797
 3891SOL     OW11671   3.118   5.078   2.245
 3891SOL    HW111672   3.179   5.147   2.285
 3891SOL    HW211673   3.023   5.101   2.269
 3892SOL     OW11674   3.175   5.186   3.003
 3892SOL    HW111675   3.237   5.199   3.081
 3892SOL    HW211676   3.115   5.108   3.021
 3893SOL     OW11677   3.495   4.366   2.378
 3893SOL    HW111678   3.407   4.389   2.419
 3893SOL    HW211679   3.503   4.407   2.288
 3894SOL     OW11680   2.196   5.263   3.164
 3894SOL    HW111681   2.201   5.226   3.072
 3894SOL    HW211682   2.287   5.293   3.194
 3895SOL     OW11683   2.256   4.448   3.445
 3895SOL    HW111684   2.302   4.511   3.383
 3895SOL    HW211685   2.324   4.389   3.489
 3896SOL     OW11686   3.491   4.546   3.545
 3896SOL    HW111687   3.391   4.550   3.537
 3896SOL    HW211688   3.533   4.588   3.464
 3897SOL     OW11689   2.870   3.869   3.646
 3897SOL    HW111690   2.943   3.924   3.609
 3897SOL    HW211691   2.863   3.783   3.595
 3898SOL     OW11692   2.314   3.723   3.616
 3898SOL    HW111693   2.275   3.681   3.534
 3898SOL    HW211694   2.262   3.806   3.639
 3899SOL     OW11695   2.420   4.578   2.873
 3899SOL    HW111696   2.456   4.671   2.875
 3899SOL    HW211697   2.369   4.560   2.957
 3900SOL     OW11698   3.190   4.549   2.924
 3900SOL    HW111699   3.114   4.561   2.860
 3900SOL    HW211700   3.239   4.464   2.903
 3901SOL     OW11701   3.046   4.219   2.098
 3901SOL    HW111702   3.061   4.143   2.161
 3901SOL    HW211703   3.014   4.299   2.149
 3902SOL     OW11704   2.160   3.927   3.125
 3902SOL    HW111705   2.121   3.934   3.217
 3902SOL    HW211706   2.151   3.833   3.092
 3903SOL     OW11707   1.917   4.993   3.158
 3903SOL    HW111708   1.976   4.951   3.226
 3903SOL    HW211709   1.907   5.091   3.178
 3904SOL     OW11710   2.617   4.370   2.932
 3904SOL    HW111711   2.683   4.337   2.865
 3904SOL    HW211712   2.572   4.452   2.898
 3905SOL     OW11713   3.643   4.693   3.703
 3905SOL    HW111714   3.597   4.632   3.639
 3905SOL    HW211715   3.590   4.699   3.788
 3906SOL     OW11716   2.209   3.777   2.469
 3906SOL    HW111717   2.161   3.862   2.493
 3906SOL    HW211718   2.206   3.714   2.547
 3907SOL     OW11719   3.453   4.130   2.244
 3907SOL    HW111720   3.487   4.051   2.295
 3907SOL    HW211721   3.446   4.208   2.305
 3908SOL     OW11722   2.895   4.498   2.818
 3908SOL    HW111723   2.895   4.512   2.917
 3908SOL    HW211724   2.854   4.409   2.797
 3909SOL     OW11725   2.855   5.311   3.573
 3909SOL    HW111726   2.818   5.345   3.486
 3909SOL    HW211727   2.889   5.218   3.561
 3910SOL     OW11728   3.711   5.252   3.495
 3910SOL    HW111729   3.726   5.276   3.399
 3910SOL    HW211730   3.798   5.257   3.544
 3911SOL     OW11731   2.217   4.659   3.637
 3911SOL    HW111732   2.280   4.665   3.714
 3911SOL    HW211733   2.242   4.581   3.580
 3912SOL     OW11734   3.410   4.005   2.010
 3912SOL    HW111735   3.358   3.920   2.014
 3912SOL    HW211736   3.422   4.042   2.102
 3913SOL     OW11737   3.168   4.567   1.918
 3913SOL    HW111738   3.186   4.469   1.922
 3913SOL    HW211739   3.190   4.602   1.826
 3914SOL     OW11740   2.927   5.078   2.764
 3914SOL    HW111741   2.920   5.005   2.697
 3914SOL    HW211742   2.976   5.156   2.724
 3915SOL     OW11743   2.158   4.496   2.816
 3915SOL    HW111744   2.250   4.531   2.797
 3915SOL    HW211745   2.164   4.398   2.839
 3916SOL     OW11746   2.201   4.234   2.858
 3916SOL    HW111747   2.157   4.146   2.842
 3916SOL    HW211748   2.279   4.244   2.796
 3917SOL     OW11749   3.050   4.071   3.558
 3917SOL    HW111750   2.974   4.123   3.598
 3917SOL    HW211751   3.125   4.134   3.535
 3918SOL     OW11752   3.007   3.911   3.351
 3918SOL    HW111753   3.023   3.974   3.428
 3918SOL    HW211754   3.044   3.952   3.268
 3919SOL     OW11755   1.840   5.061   2.081
 3919SOL    HW111756   1.743   5.069   2.058
 3919SOL    HW211757   1.860   4.966   2.105
 3920SOL     OW11758   1.950   5.522   2.798
 3920SOL    HW111759   1.905   5.441   2.760
 3920SOL    HW211760   2.043   5.528   2.763
 3921SOL     OW11761   2.370   5.308   2.765
 3921SOL    HW111762   2.446   5.373   2.770
 3921SOL    HW211763   2.391   5.238   2.696
 3922SOL     OW11764   2.851   4.519   3.076
 3922SOL    HW111765   2.909   4.517   3.158
 3922SOL    HW211766   2.774   4.457   3.088
 3923SOL     OW11767   1.900   4.280   2.988
 3923SOL    HW111768   1.979   4.293   2.928
 3923SOL    HW211769   1.932   4.256   3.080
 3924SOL     OW11770   2.097   4.247   3.594
 3924SOL    HW111771   2.168   4.229   3.525
 3924SOL    HW211772   2.041   4.324   3.564
 3925SOL     OW11773   3.239   4.640   3.518
 3925SOL    HW111774   3.264   4.736   3.523
 3925SOL    HW211775   3.230   4.613   3.422
 3926SOL     OW11776   2.703   4.277   2.181
 3926SOL    HW111777   2.699   4.195   2.124
 3926SOL    HW211778   2.616   4.326   2.176
 3927SOL     OW11779   3.495   4.309   3.033
 3927SOL    HW111780   3.479   4.281   3.128
 3927SOL    HW211781   3.590   4.293   3.009
 3928SOL     OW11782   2.091   5.245   3.603
 3928SOL    HW111783   2.088   5.318   3.670
 3928SOL    HW211784   2.086   5.156   3.650
 3929SOL     OW11785   2.568   4.175   3.114
 3929SOL    HW111786   2.512   4.094   3.096
 3929SOL    HW211787   2.566   4.235   3.034
 3930SOL     OW11788   2.766   5.362   3.325
 3930SOL    HW111789   2.776   5.316   3.237
 3930SOL    HW211790   2.747   5.459   3.311
 3931SOL     OW11791   2.355   4.229   2.012
 3931SOL    HW111792   2.422   4.285   2.062
 3931SOL    HW211793   2.267   4.275   2.013
 3932SOL     OW11794   2.062   4.850   3.329
 3932SOL    HW111795   2.033   4.808   3.415
 3932SOL    HW211796   2.055   4.784   3.255
 3933SOL     OW11797   3.165   4.757   3.087
 3933SOL    HW111798   3.187   4.682   3.025
 3933SOL    HW211799   3.070   4.785   3.073
 3934SOL     OW11800   3.164   4.629   2.169
 3934SOL    HW111801   3.094   4.578   2.219
 3934SOL    HW211802   3.162   4.603   2.073
 3935SOL     OW11803   3.647   5.441   3.027
 3935SOL    HW111804   3.716   5.472   2.962
 3935SOL    HW211805   3.613   5.351   2.999
 3936SOL     OW11806   3.080   5.433   3.030
 3936SOL    HW111807   3.132   5.500   2.978
 3936SOL    HW211808   3.118   5.341   3.014
 3937SOL     OW11809   1.969   4.983   2.894
 3937SOL    HW111810   1.953   4.981   2.992
 3937SOL    HW211811   1.895   4.935   2.847
 3938SOL     OW11812   2.570   5.387   3.611
 3938SOL    HW111813   2.480   5.425   3.588
 3938SOL    HW211814   2.634   5.406   3.536
 3939SOL     OW11815   3.575   3.890   2.364
 3939SOL    HW111816   3.655   3.887   2.304
 3939SOL    HW211817   3.555   3.798   2.396
 3940SOL     OW11818   3.228   5.308   2.337
 3940SOL    HW111819   3.293   5.327   2.264
 3940SOL    HW211820   3.191   5.395   2.372
 3941SOL     OW11821   1.991   5.511   3.705
 3941SOL    HW111822   1.912   5.459   3.738
 3941SOL    HW211823   2.034   5.558   3.782
 3942SOL     OW11824   3.142   4.638   2.516
 3942SOL    HW111825   3.210   4.566   2.533
 3942SOL    HW211826   3.190   4.725   2.505
 3943SOL     OW11827   2.646   4.972   3.264
 3943SOL    HW111828   2.620   5.026   3.344
 3943SOL    HW211829   2.580   4.987   3.191
 3944SOL     OW11830   2.502   5.340   2.023
 3944SOL    HW111831   2.531   5.339   1.928
 3944SOL    HW211832   2.452   5.255   2.044
 3945SOL     OW11833   3.491   5.492   3.255
 3945SOL    HW111834   3.546   5.483   3.171
 3945SOL    HW211835   3.445   5.581   3.254
 3946SOL     OW11836   3.732   3.895   2.814
 3946SOL    HW111837   3.746   3.798   2.795
 3946SOL    HW211838   3.637   3.920   2.795
 3947SOL     OW11839   2.115   4.008   2.554
 3947SOL    HW111840   2.027   4.048   2.527
 3947SOL    HW211841   2.122   4.007   2.653
 3948SOL     OW11842   3.084   5.334   1.880
 3948SOL    HW111843   3.054   5.248   1.921
 3948SOL    HW211844   3.031   5.354   1.798
 3949SOL     OW11845   2.706   4.717   3.237
 3949SOL    HW111846   2.758   4.705   3.152
 3949SOL    HW211847   2.677   4.812   3.245
 3950SOL     OW11848   2.771   4.647   2.139
 3950SOL    HW111849   2.844   4.693   2.088
 3950SOL    HW211850   2.787   4.549   2.139
 3951SOL     OW11851   3.361   5.400   1.933
 3951SOL    HW111852   3.266   5.370   1.940
 3951SOL    HW211853   3.392   5.392   1.838
 3952SOL     OW11854   2.226   5.044   3.386
 3952SOL    HW111855   2.217   5.113   3.314
 3952SOL    HW211856   2.165   4.967   3.366
 3953SOL     OW11857   3.482   5.015   3.164
 3953SOL    HW111858   3.531   4.994   3.248
 3953SOL    HW211859   3.418   5.090   3.180
 3954SOL     OW11860   2.886   4.870   2.582
 3954SOL    HW111861   2.835   4.792   2.618
 3954SOL    HW211862   2.940   4.842   2.503
 3955SOL     OW11863   2.841   3.966   2.844
 3955SOL    HW111864   2.826   3.930   2.752
 3955SOL    HW211865   2.852   3.890   2.908
 3956SOL     OW11866   2.474   5.196   2.307
 3956SOL    HW111867   2.475   5.121   2.240
 3956SOL    HW211868   2.403   5.262   2.283
 3957SOL     OW11869   3.580   4.117   3.221
 3957SOL    HW111870   3.649   4.184   3.248
 3957SOL    HW211871   3.618   4.056   3.151
 3958SOL     OW11872   2.110   5.088   2.159
 3958SOL    HW111873   2.017   5.097   2.121
 3958SOL    HW211874   2.111   5.124   2.252
 3959SOL     OW11875   1.984   4.773   3.572
 3959SOL    HW111876   1.909   4.744   3.631
 3959SOL    HW211877   2.068   4.726   3.601
 3960SOL     OW11878   2.540   3.924   3.343
 3960SOL    HW111879   2.625   3.879   3.315
 3960SOL    HW211880   2.556   3.976   3.427
 3961SOL     OW11881   1.921   4.067   1.897
 3961SOL    HW111882   1.835   4.030   1.860
 3961SOL    HW211883   1.946   4.149   1.846
 3962SOL     OW11884   3.292   4.576   3.256
 3962SOL    HW111885   3.235   4.636   3.200
 3962SOL    HW211886   3.387   4.582   3.225
 3963SOL     OW11887   1.920   3.879   2.170
 3963SOL    HW111888   1.885   3.953   2.114
 3963SOL    HW211889   2.014   3.859   2.144
 3964SOL     OW11890   3.041   5.086   1.991
 3964SOL    HW111891   2.982   5.005   1.982
 3964SOL    HW211892   3.074   5.092   2.085
 3965SOL     OW11893   2.481   4.527   3.302
 3965SOL    HW111894   2.532   4.607   3.270
 3965SOL    HW211895   2.545   4.457   3.334
 3966SOL     OW11896   3.349   5.510   2.852
 3966SOL    HW111897   3.361   5.585   2.786
 3966SOL    HW211898   3.429   5.505   2.911
 3967SOL     OW11899   2.581   4.274   3.567
 3967SOL    HW111900   2.601   4.339   3.641
 3967SOL    HW211901   2.602   4.181   3.597
 3968SOL     OW11902   3.335   4.919   3.492
 3968SOL    HW111903   3.308   4.935   3.587
 3968SOL    HW211904   3.421   4.965   3.474
 3969SOL     OW11905   2.230   5.445   3.399
 3969SOL    HW111906   2.146   5.500   3.399
 3969SOL    HW211907   2.210   5.353   3.432
 3970SOL     OW11908   3.546   4.597   3.096
 3970SOL    HW111909   3.528   4.515   3.041
 3970SOL    HW211910   3.533   4.678   3.039
 3971SOL     OW11911   3.072   4.063   2.313
 3971SOL    HW111912   3.130   3.983   2.293
 3971SOL    HW211913   3.106   4.109   2.395
 3972SOL     OW11914   2.389   4.456   2.560
 3972SOL    HW111915   2.446   4.538   2.556
 3972SOL    HW211916   2.340   4.445   2.474
 3973SOL     OW11917   3.597   4.109   3.512
 3973SOL    HW111918   3.611   4.078   3.418
 3973SOL    HW211919   3.526   4.053   3.554
 3974SOL     OW11920   3.613   4.682   3.335
 3974SOL    HW111921   3.618   4.781   3.320
 3974SOL    HW211922   3.601   4.635   3.248
 3975SOL     OW11923   2.709   5.130   1.874
 3975SOL    HW111924   2.721   5.101   1.969
 3975SOL    HW211925   2.762   5.213   1.858
 3976SOL     OW11926   2.540   5.516   2.782
 3976SOL    HW111927   2.495   5.601   2.809
 3976SOL    HW211928   2.639   5.527   2.791
 3977SOL     OW11929   2.728   4.702   2.735
 3977SOL    HW111930   2.797   4.632   2.756
 3977SOL    HW211931   2.701   4.748   2.820
 3978SOL     OW11932   2.946   4.753   1.938
 3978SOL    HW111933   2.906   4.783   1.851
 3978SOL    HW211934   3.011   4.680   1.921
 3979SOL     OW11935   3.686   5.305   2.719
 3979SOL    HW111936   3.603   5.302   2.663
 3979SOL    HW211937   3.676   5.242   2.796
 3980SOL     OW11938   2.054   4.985   3.732
 3980SOL    HW111939   2.030   4.908   3.673
 3980SOL    HW211940   2.014   4.970   3.822
 3981SOL     OW11941   1.980   4.946   2.487
 3981SOL    HW111942   1.982   4.915   2.582
 3981SOL    HW211943   2.061   4.913   2.439
 3982SOL     OW11944   2.584   5.110   3.479
 3982SOL    HW111945   2.490   5.111   3.514
 3982SOL    HW211946   2.639   5.176   3.530
 3983SOL     OW11947   3.680   3.895   3.092
 3983SOL    HW111948   3.682   3.803   3.130
 3983SOL    HW211949   3.711   3.893   2.997
 3984SOL     OW11950   2.265   4.151   2.381
 3984SOL    HW111951   2.316   4.082   2.330
 3984SOL    HW211952   2.202   4.105   2.444
 3985SOL     OW11953   3.564   5.187   2.961
 3985SOL    HW111954   3.486   5.171   2.900
 3985SOL    HW211955   3.561   5.123   3.037
 3986SOL     OW11956   2.170   4.278   3.128
 3986SOL    HW111957   2.229   4.230   3.194
 3986SOL    HW211958   2.192   4.248   3.035
 3987SOL     OW11959   2.675   5.275   2.566
 3987SOL    HW111960   2.684   5.297   2.469
 3987SOL    HW211961   2.588   5.229   2.582
 3988SOL     OW11962   3.267   3.959   2.998
 3988SOL    HW111963   3.352   3.915   3.027
 3988SOL    HW211964   3.237   4.024   3.068
 3989SOL     OW11965   2.876   3.748   3.027
 3989SOL    HW111966   2.816   3.689   2.971
 3989SOL    HW211967   2.956   3.696   3.055
 3990SOL     OW11968   2.703   5.012   2.199
 3990SOL    HW111969   2.633   4.945   2.223
 3990SOL    HW211970   2.744   5.050   2.282
 3991SOL     OW11971   2.509   5.283   3.143
 3991SOL    HW111972   2.498   5.362   3.203
 3991SOL    HW211973   2.602   5.282   3.105
 3992SOL     OW11974   3.239   3.793   2.019
 3992SOL    HW111975   3.283   3.749   1.941
 3992SOL    HW211976   3.164   3.735   2.052
 3993SOL     OW11977   3.176   4.174   2.535
 3993SOL    HW111978   3.129   4.263   2.536
 3993SOL    HW211979   3.181   4.138   2.629
 3994SOL     OW11980   3.467   3.949   2.768
 3994SOL    HW111981   3.393   3.956   2.834
 3994SOL    HW211982   3.462   4.025   2.703
 3995SOL     OW11983   1.898   4.815   2.153
 3995SOL    HW111984   1.998   4.809   2.157
 3995SOL    HW211985   1.860   4.722   2.150
 3996SOL     OW11986   2.743   5.363   2.138
 3996SOL    HW111987   2.655   5.340   2.097
 3996SOL    HW211988   2.732   5.438   2.204
 3997SOL     OW11989   2.118   4.375   3.856
 3997SOL    HW111990   2.034   4.394   3.906
 3997SOL    HW211991   2.096   4.329   3.770
 3998SOL     OW11992   2.113   3.994   4.689
 3998SOL    HW111993   2.149   3.969   4.779
 3998SOL    HW211994   2.018   3.964   4.682
 3999SOL     OW11995   1.886   4.115   4.356
 3999SOL    HW111996   1.815   4.147   4.419
 3999SOL    HW211997   1.847   4.046   4.295
 4000SOL     OW11998   2.384   5.013   4.884
 4000SOL    HW111999   2.319   5.033   4.811
 4000SOL    HW212000   2.391   5.091   4.946
 4001SOL     OW12001   3.428   5.247   4.437
 4001SOL    HW112002   3.383   5.220   4.522
 4001SOL    HW212003   3.358   5.260   4.366
 4002SOL     OW12004   2.985   4.417   4.361
 4002SOL    HW112005   3.039   4.500   4.377
 4002SOL    HW212006   2.906   4.416   4.422
 4003SOL     OW12007   3.560   4.360   3.960
 4003SOL    HW112008   3.571   4.356   3.861
 4003SOL    HW212009   3.527   4.271   3.993
 4004SOL     OW12010   2.606   4.884   4.781
 4004SOL    HW112011   2.516   4.908   4.818
 4004SOL    HW212012   2.647   4.965   4.739
 4005SOL     OW12013   2.684   4.517   5.546
 4005SOL    HW112014   2.665   4.589   5.612
 4005SOL    HW212015   2.734   4.556   5.468
 4006SOL     OW12016   2.526   4.706   4.418
 4006SOL    HW112017   2.601   4.711   4.485
 4006SOL    HW212018   2.457   4.775   4.440
 4007SOL     OW12019   2.563   4.874   5.538
 4007SOL    HW112020   2.616   4.958   5.553
 4007SOL    HW212021   2.467   4.898   5.524
 4008SOL     OW12022   2.196   5.185   4.779
 4008SOL    HW112023   2.117   5.144   4.733
 4008SOL    HW212024   2.250   5.236   4.714
 4009SOL     OW12025   3.352   5.254   5.081
 4009SOL    HW112026   3.404   5.338   5.092
 4009SOL    HW212027   3.272   5.255   5.142
 4010SOL     OW12028   2.307   4.146   5.190
 4010SOL    HW112029   2.384   4.083   5.183
 4010SOL    HW212030   2.227   4.096   5.224
 4011SOL     OW12031   3.533   4.196   4.489
 4011SOL    HW112032   3.463   4.237   4.431
 4011SOL    HW212033   3.555   4.259   4.564
 4012SOL     OW12034   2.102   5.437   4.243
 4012SOL    HW112035   2.137   5.521   4.283
 4012SOL    HW212036   2.142   5.423   4.152
 4013SOL     OW12037   2.975   5.057   5.433
 4013SOL    HW112038   3.055   5.048   5.492
 4013SOL    HW212039   2.927   4.969   5.427
 4014SOL     OW12040   2.135   5.162   4.288
 4014SOL    HW112041   2.118   5.261   4.293
 4014SOL    HW212042   2.052   5.113   4.314
 4015SOL     OW12043   2.125   4.807   4.619
 4015SOL    HW112044   2.106   4.714   4.650
 4015SOL    HW212045   2.082   4.873   4.682
 4016SOL     OW12046   2.503   5.505   5.174
 4016SOL    HW112047   2.410   5.484   5.204
 4016SOL    HW212048   2.520   5.604   5.185
 4017SOL     OW12049   2.463   4.674   3.883
 4017SOL    HW112050   2.483   4.733   3.805
 4017SOL    HW212051   2.515   4.706   3.962
 4018SOL     OW12052   3.507   3.874   5.199
 4018SOL    HW112053   3.511   3.965   5.158
 4018SOL    HW212054   3.455   3.877   5.284
 4019SOL     OW12055   1.981   4.366   4.276
 4019SOL    HW112056   1.959   4.273   4.302
 4019SOL    HW212057   1.976   4.426   4.356
 4020SOL     OW12058   3.737   5.463   4.062
 4020SOL    HW112059   3.787   5.448   4.147
 4020SOL    HW212060   3.738   5.560   4.038
 4021SOL     OW12061   1.840   5.320   3.831
 4021SOL    HW112062   1.855   5.224   3.855
 4021SOL    HW212063   1.851   5.377   3.913
 4022SOL     OW12064   3.534   4.659   4.368
 4022SOL    HW112065   3.610   4.609   4.328
 4022SOL    HW212066   3.509   4.736   4.309
 4023SOL     OW12067   3.511   4.882   4.204
 4023SOL    HW112068   3.592   4.862   4.150
 4023SOL    HW212069   3.538   4.922   4.292
 4024SOL     OW12070   1.994   4.465   5.310
 4024SOL    HW112071   2.093   4.470   5.303
 4024SOL    HW212072   1.954   4.555   5.297
 4025SOL     OW12073   2.454   5.114   4.441
 4025SOL    HW112074   2.403   5.028   4.453
 4025SOL    HW212075   2.447   5.144   4.347
 4026SOL     OW12076   3.143   4.940   5.171
 4026SOL    HW112077   3.166   4.888   5.090
 4026SOL    HW212078   3.206   4.917   5.245
 4027SOL     OW12079   2.683   3.701   4.194
 4027SOL    HW112080   2.729   3.789   4.197
 4027SOL    HW212081   2.585   3.714   4.207
 4028SOL     OW12082   2.046   4.671   5.002
 4028SOL    HW112083   2.127   4.627   4.963
 4028SOL    HW212084   1.964   4.624   4.968
 4029SOL     OW12085   3.437   4.689   3.916
 4029SOL    HW112086   3.357   4.635   3.942
 4029SOL    HW212087   3.442   4.771   3.973
 4030SOL     OW12088   3.069   5.531   5.340
 4030SOL    HW112089   3.029   5.573   5.259
 4030SOL    HW212090   3.089   5.435   5.322
 4031SOL     OW12091   2.167   3.964   5.554
 4031SOL    HW112092   2.200   4.055   5.578
 4031SOL    HW212093   2.072   3.954   5.583
 4032SOL     OW12094   3.336   5.146   4.657
 4032SOL    HW112095   3.268   5.166   4.728
 4032SOL    HW212096   3.342   5.048   4.643
 4033SOL     OW12097   3.506   5.473   4.308
 4033SOL    HW112098   3.468   5.452   4.218
 4033SOL    HW212099   3.498   5.394   4.367
 4034SOL     OW12100   2.483   4.426   4.017
 4034SOL    HW112101   2.483   4.504   3.954
 4034SOL    HW212102   2.410   4.437   4.083
 4035SOL     OW12103   3.166   4.093   4.655
 4035SOL    HW112104   3.071   4.065   4.641
 4035SOL    HW212105   3.205   4.042   4.731
 4036SOL     OW12106   3.454   5.391   4.054
 4036SOL    HW112107   3.553   5.401   4.067
 4036SOL    HW212108   3.433   5.391   3.957
 4037SOL     OW12109   2.657   4.331   5.181
 4037SOL    HW112110   2.628   4.303   5.273
 4037SOL    HW212111   2.628   4.261   5.115
 4038SOL     OW12112   3.255   4.228   5.413
 4038SOL    HW112113   3.252   4.260   5.508
 4038SOL    HW212114   3.315   4.149   5.407
 4039SOL     OW12115   2.838   4.593   5.291
 4039SOL    HW112116   2.890   4.518   5.250
 4039SOL    HW212117   2.783   4.638   5.221
 4040SOL     OW12118   2.861   4.089   4.966
 4040SOL    HW112119   2.777   4.142   4.980
 4040SOL    HW212120   2.858   4.045   4.877
 4041SOL     OW12121   2.915   4.417   4.085
 4041SOL    HW112122   2.933   4.427   4.183
 4041SOL    HW212123   2.830   4.366   4.071
 4042SOL     OW12124   1.960   4.540   4.493
 4042SOL    HW112125   2.037   4.517   4.552
 4042SOL    HW212126   1.904   4.610   4.538
 4043SOL     OW12127   1.974   5.566   5.307
 4043SOL    HW112128   1.982   5.557   5.407
 4043SOL    HW212129   1.885   5.603   5.284
 4044SOL     OW12130   2.734   4.061   3.878
 4044SOL    HW112131   2.778   4.120   3.810
 4044SOL    HW212132   2.770   3.968   3.871
 4045SOL     OW12133   3.562   4.343   5.564
 4045SOL    HW112134   3.535   4.424   5.512
 4045SOL    HW212135   3.571   4.265   5.502
 4046SOL     OW12136   3.244   4.878   4.284
 4046SOL    HW112137   3.330   4.869   4.234
 4046SOL    HW212138   3.173   4.912   4.222
 4047SOL     OW12139   2.390   3.887   4.649
 4047SOL    HW112140   2.407   3.920   4.742
 4047SOL    HW212141   2.384   3.966   4.587
 4048SOL     OW12142   2.894   5.209   4.168
 4048SOL    HW112143   2.827   5.261   4.115
 4048SOL    HW212144   2.919   5.260   4.250
 4049SOL     OW12145   2.206   5.517   4.602
 4049SOL    HW112146   2.260   5.433   4.608
 4049SOL    HW212147   2.265   5.595   4.623
 4050SOL     OW12148   3.677   4.781   4.625
 4050SOL    HW112149   3.636   4.813   4.540
 4050SOL    HW212150   3.609   4.782   4.698
 4051SOL     OW12151   3.116   5.257   5.224
 4051SOL    HW112152   3.120   5.165   5.261
 4051SOL    HW212153   3.022   5.280   5.200
 4052SOL     OW12154   2.173   4.716   3.961
 4052SOL    HW112155   2.272   4.718   3.953
 4052SOL    HW212156   2.140   4.625   3.934
 4053SOL     OW12157   3.322   4.462   4.458
 4053SOL    HW112158   3.322   4.400   4.537
 4053SOL    HW212159   3.411   4.507   4.450
 4054SOL     OW12160   2.307   5.001   5.501
 4054SOL    HW112161   2.299   5.001   5.401
 4054SOL    HW212162   2.217   5.007   5.542
 4055SOL     OW12163   3.027   5.506   3.948
 4055SOL    HW112164   2.943   5.474   3.991
 4055SOL    HW212165   3.052   5.444   3.873
 4056SOL     OW12166   2.066   3.996   5.245
 4056SOL    HW112167   1.980   4.035   5.213
 4056SOL    HW212168   2.062   3.983   5.344
 4057SOL     OW12169   3.449   5.086   3.859
 4057SOL    HW112170   3.439   5.180   3.825
 4057SOL    HW212171   3.384   5.027   3.811
 4058SOL     OW12172   2.323   5.482   4.048
 4058SOL    HW112173   2.366   5.542   4.115
 4058SOL    HW212174   2.393   5.433   3.997
 4059SOL     OW12175   3.232   3.859   4.145
 4059SOL    HW112176   3.229   3.839   4.047
 4059SOL    HW212177   3.327   3.872   4.173
 4060SOL     OW12178   2.063   5.507   4.927
 4060SOL    HW112179   2.121   5.433   4.961
 4060SOL    HW212180   2.063   5.506   4.827
 4061SOL     OW12181   2.805   5.433   4.621
 4061SOL    HW112182   2.852   5.370   4.683
 4061SOL    HW212183   2.760   5.381   4.549
 4062SOL     OW12184   2.249   4.414   4.184
 4062SOL    HW112185   2.261   4.316   4.202
 4062SOL    HW212186   2.155   4.440   4.203
 4063SOL     OW12187   3.367   3.963   5.450
 4063SOL    HW112188   3.371   3.990   5.545
 4063SOL    HW212189   3.287   3.904   5.435
 4064SOL     OW12190   2.467   3.823   3.794
 4064SOL    HW112191   2.557   3.778   3.799
 4064SOL    HW212192   2.414   3.783   3.719
 4065SOL     OW12193   2.599   4.009   5.486
 4065SOL    HW112194   2.687   3.962   5.489
 4065SOL    HW212195   2.545   3.984   5.566
 4066SOL     OW12196   2.779   5.254   4.901
 4066SOL    HW112197   2.732   5.208   4.826
 4066SOL    HW212198   2.849   5.193   4.939
 4067SOL     OW12199   3.189   4.342   5.181
 4067SOL    HW112200   3.231   4.312   5.266
 4067SOL    HW212201   3.234   4.425   5.148
 4068SOL     OW12202   2.641   5.111   4.653
 4068SOL    HW112203   2.720   5.153   4.609
 4068SOL    HW212204   2.575   5.083   4.584
 4069SOL     OW12205   2.782   4.232   4.633
 4069SOL    HW112206   2.740   4.206   4.546
 4069SOL    HW212207   2.814   4.150   4.680
 4070SOL     OW12208   2.431   3.792   4.200
 4070SOL    HW112209   2.351   3.791   4.260
 4070SOL    HW212210   2.439   3.881   4.156
 4071SOL     OW12211   3.260   4.913   3.748
 4071SOL    HW112212   3.293   4.821   3.768
 4071SOL    HW212213   3.195   4.942   3.819
 4072SOL     OW12214   2.151   3.763   3.928
 4072SOL    HW112215   2.204   3.823   3.867
 4072SOL    HW212216   2.213   3.699   3.973
 4073SOL     OW12217   2.796   3.946   4.194
 4073SOL    HW112218   2.752   3.993   4.118
 4073SOL    HW212219   2.890   3.978   4.204
 4074SOL     OW12220   2.933   4.379   5.156
 4074SOL    HW112221   2.857   4.317   5.174
 4074SOL    HW212222   3.019   4.332   5.175
 4075SOL     OW12223   3.066   5.272   4.499
 4075SOL    HW112224   3.101   5.319   4.418
 4075SOL    HW212225   3.136   5.270   4.570
 4076SOL     OW12226   2.319   4.870   4.456
 4076SOL    HW112227   2.244   4.840   4.515
 4076SOL    HW212228   2.290   4.863   4.360
 4077SOL     OW12229   3.155   5.542   4.319
 4077SOL    HW112230   3.174   5.606   4.245
 4077SOL    HW212231   3.124   5.593   4.400
 4078SOL     OW12232   2.887   4.239   3.688
 4078SOL    HW112233   2.841   4.328   3.681
 4078SOL    HW212234   2.947   4.239   3.767
 4079SOL     OW12235   1.940   4.267   5.148
 4079SOL    HW112236   2.022   4.254   5.092
 4079SOL    HW212237   1.952   4.347   5.207
 4080SOL     OW12238   2.417   3.953   4.917
 4080SOL    HW112239   2.475   3.889   4.967
 4080SOL    HW212240   2.321   3.936   4.939
 4081SOL     OW12241   2.711   4.138   4.390
 4081SOL    HW112242   2.664   4.187   4.316
 4081SOL    HW212243   2.760   4.060   4.351
 4082SOL     OW12244   2.836   3.791   4.461
 4082SOL    HW112245   2.792   3.759   4.376
 4082SOL    HW212246   2.853   3.714   4.521
 4083SOL     OW12247   3.309   4.883   4.610
 4083SOL    HW112248   3.226   4.831   4.629
 4083SOL    HW212249   3.323   4.888   4.511
 4084SOL     OW12250   3.340   4.297   4.666
 4084SOL    HW112251   3.279   4.218   4.671
 4084SOL    HW212252   3.400   4.299   4.746
 4085SOL     OW12253   3.758   4.530   4.086
 4085SOL    HW112254   3.787   4.472   4.162
 4085SOL    HW212255   3.685   4.484   4.035
 4086SOL     OW12256   2.356   5.133   3.913
 4086SOL    HW112257   2.266   5.111   3.952
 4086SOL    HW212258   2.358   5.108   3.816
 4087SOL     OW12259   3.580   5.017   4.439
 4087SOL    HW112260   3.670   5.030   4.399
 4087SOL    HW212261   3.528   5.102   4.432
 4088SOL     OW12262   3.235   4.313   3.817
 4088SOL    HW112263   3.164   4.273   3.874
 4088SOL    HW212264   3.325   4.283   3.849
 4089SOL     OW12265   2.412   4.009   4.041
 4089SOL    HW112266   2.420   3.941   3.968
 4089SOL    HW212267   2.382   4.096   4.001
 4090SOL     OW12268   3.604   5.004   5.298
 4090SOL    HW112269   3.684   4.945   5.308
 4090SOL    HW212270   3.627   5.096   5.329
 4091SOL     OW12271   2.915   5.054   5.073
 4091SOL    HW112272   2.830   5.035   5.122
 4091SOL    HW212273   2.991   5.011   5.122
 4092SOL     OW12274   3.471   5.391   5.386
 4092SOL    HW112275   3.464   5.415   5.289
 4092SOL    HW212276   3.558   5.346   5.403
 4093SOL     OW12277   2.928   4.895   4.853
 4093SOL    HW112278   2.918   4.958   4.930
 4093SOL    HW212279   2.911   4.944   4.768
 4094SOL     OW12280   3.503   4.819   4.822
 4094SOL    HW112281   3.501   4.894   4.888
 4094SOL    HW212282   3.433   4.833   4.752
 4095SOL     OW12283   2.782   3.797   5.158
 4095SOL    HW112284   2.788   3.777   5.060
 4095SOL    HW212285   2.859   3.855   5.184
 4096SOL     OW12286   2.853   4.819   5.447
 4096SOL    HW112287   2.755   4.840   5.453
 4096SOL    HW212288   2.867   4.743   5.384
 4097SOL     OW12289   2.581   4.795   4.129
 4097SOL    HW112290   2.562   4.771   4.224
 4097SOL    HW212291   2.661   4.743   4.097
 4098SOL     OW12292   2.273   4.514   4.967
 4098SOL    HW112293   2.345   4.526   5.035
 4098SOL    HW212294   2.226   4.427   4.982
 4099SOL     OW12295   3.144   4.153   4.998
 4099SOL    HW112296   3.168   4.232   5.056
 4099SOL    HW212297   3.048   4.159   4.972
 4100SOL     OW12298   1.921   5.273   5.070
 4100SOL    HW112299   1.875   5.345   5.019
 4100SOL    HW212300   2.020   5.291   5.072
 4101SOL     OW12301   2.234   4.856   4.203
 4101SOL    HW112302   2.220   4.935   4.144
 4101SOL    HW212303   2.253   4.775   4.147
 4102SOL     OW12304   2.447   4.250   4.589
 4102SOL    HW112305   2.435   4.324   4.523
 4102SOL    HW212306   2.511   4.279   4.660
 4103SOL     OW12307   3.119   5.063   4.104
 4103SOL    HW112308   3.187   5.125   4.142
 4103SOL    HW212309   3.027   5.095   4.128
 4104SOL     OW12310   3.175   5.181   4.870
 4104SOL    HW112311   3.236   5.194   4.948
 4104SOL    HW212312   3.118   5.100   4.885
 4105SOL     OW12313   3.494   4.365   4.235
 4105SOL    HW112314   3.403   4.382   4.273
 4105SOL    HW212315   3.502   4.412   4.147
 4106SOL     OW12316   2.199   5.267   5.028
 4106SOL    HW112317   2.201   5.225   4.938
 4106SOL    HW212318   2.292   5.293   5.054
 4107SOL     OW12319   2.256   4.445   5.301
 4107SOL    HW112320   2.312   4.499   5.237
 4107SOL    HW212321   2.316   4.388   5.357
 4108SOL     OW12322   3.485   4.550   5.412
 4108SOL    HW112323   3.388   4.569   5.401
 4108SOL    HW212324   3.537   4.593   5.338
 4109SOL     OW12325   2.839   3.888   5.488
 4109SOL    HW112326   2.918   3.947   5.472
 4109SOL    HW212327   2.854   3.799   5.444
 4110SOL     OW12328   2.318   3.731   5.479
 4110SOL    HW112329   2.290   3.690   5.392
 4110SOL    HW212330   2.263   3.813   5.496
 4111SOL     OW12331   2.433   4.571   4.741
 4111SOL    HW112332   2.461   4.667   4.739
 4111SOL    HW212333   2.373   4.555   4.820
 4112SOL     OW12334   3.181   4.560   4.789
 4112SOL    HW112335   3.099   4.568   4.732
 4112SOL    HW212336   3.228   4.475   4.766
 4113SOL     OW12337   3.048   4.211   3.973
 4113SOL    HW112338   3.054   4.137   4.040
 4113SOL    HW212339   3.013   4.294   4.018
 4114SOL     OW12340   2.151   3.927   4.955
 4114SOL    HW112341   2.116   3.951   5.046
 4114SOL    HW212342   2.138   3.829   4.940
 4115SOL     OW12343   1.915   5.003   5.012
 4115SOL    HW112344   1.974   4.956   5.078
 4115SOL    HW212345   1.913   5.100   5.033
 4116SOL     OW12346   2.613   4.364   4.795
 4116SOL    HW112347   2.681   4.334   4.727
 4116SOL    HW212348   2.565   4.445   4.760
 4117SOL     OW12349   3.623   4.711   5.606
 4117SOL    HW112350   3.594   4.638   5.543
 4117SOL    HW212351   3.553   4.723   5.676
 4118SOL     OW12352   2.210   3.780   4.334
 4118SOL    HW112353   2.161   3.863   4.360
 4118SOL    HW212354   2.209   3.716   4.411
 4119SOL     OW12355   3.453   4.134   4.094
 4119SOL    HW112356   3.490   4.052   4.139
 4119SOL    HW212357   3.442   4.207   4.161
 4120SOL     OW12358   2.898   4.498   4.679
 4120SOL    HW112359   2.896   4.512   4.778
 4120SOL    HW212360   2.857   4.409   4.658
 4121SOL     OW12361   2.861   5.302   5.447
 4121SOL    HW112362   2.821   5.337   5.362
 4121SOL    HW212363   2.906   5.214   5.429
 4122SOL     OW12364   3.709   5.254   5.366
 4122SOL    HW112365   3.735   5.241   5.271
 4122SOL    HW212366   3.791   5.273   5.421
 4123SOL     OW12367   2.224   4.630   5.532
 4123SOL    HW112368   2.311   4.645   5.579
 4123SOL    HW212369   2.239   4.571   5.453
 4124SOL     OW12370   3.410   4.005   3.867
 4124SOL    HW112371   3.353   3.923   3.873
 4124SOL    HW212372   3.423   4.043   3.958
 4125SOL     OW12373   3.165   4.564   3.774
 4125SOL    HW112374   3.186   4.467   3.781
 4125SOL    HW212375   3.189   4.597   3.682
 4126SOL     OW12376   2.928   5.079   4.625
 4126SOL    HW112377   2.919   5.004   4.559
 4126SOL    HW212378   2.975   5.156   4.581
 4127SOL     OW12379   2.160   4.496   4.677
 4127SOL    HW112380   2.250   4.533   4.654
 4127SOL    HW212381   2.169   4.400   4.702
 4128SOL     OW12382   2.205   4.235   4.725
 4128SOL    HW112383   2.160   4.147   4.710
 4128SOL    HW212384   2.281   4.245   4.661
 4129SOL     OW12385   3.027   4.092   5.414
 4129SOL    HW112386   2.960   4.137   5.473
 4129SOL    HW212387   3.107   4.151   5.404
 4130SOL     OW12388   3.007   3.924   5.208
 4130SOL    HW112389   3.008   3.993   5.280
 4130SOL    HW212390   3.049   3.961   5.125
 4131SOL     OW12391   1.835   5.058   3.937
 4131SOL    HW112392   1.738   5.065   3.915
 4131SOL    HW212393   1.856   4.965   3.967
 4132SOL     OW12394   1.947   5.526   4.657
 4132SOL    HW112395   1.903   5.443   4.623
 4132SOL    HW212396   2.041   5.530   4.622
 4133SOL     OW12397   2.366   5.306   4.621
 4133SOL    HW112398   2.442   5.369   4.638
 4133SOL    HW212399   2.393   5.239   4.552
 4134SOL     OW12400   2.853   4.520   4.937
 4134SOL    HW112401   2.907   4.505   5.020
 4134SOL    HW212402   2.773   4.460   4.938
 4135SOL     OW12403   1.904   4.286   4.842
 4135SOL    HW112404   1.986   4.291   4.785
 4135SOL    HW212405   1.930   4.264   4.936
 4136SOL     OW12406   2.089   4.251   5.456
 4136SOL    HW112407   2.157   4.211   5.394
 4136SOL    HW212408   2.046   4.330   5.411
 4137SOL     OW12409   3.242   4.651   5.375
 4137SOL    HW112410   3.270   4.747   5.381
 4137SOL    HW212411   3.239   4.623   5.279
 4138SOL     OW12412   2.700   4.274   4.046
 4138SOL    HW112413   2.696   4.195   3.985
 4138SOL    HW212414   2.614   4.325   4.041
 4139SOL     OW12415   3.497   4.310   4.889
 4139SOL    HW112416   3.483   4.282   4.984
 4139SOL    HW212417   3.593   4.299   4.864
 4140SOL     OW12418   2.114   5.258   5.457
 4140SOL    HW112419   2.108   5.332   5.524
 4140SOL    HW212420   2.095   5.171   5.503
 4141SOL     OW12421   2.575   4.171   4.980
 4141SOL    HW112422   2.510   4.097   4.961
 4141SOL    HW212423   2.571   4.238   4.905
 4142SOL     OW12424   2.769   5.360   5.192
 4142SOL    HW112425   2.773   5.318   5.101
 4142SOL    HW212426   2.758   5.459   5.183
 4143SOL     OW12427   2.354   4.230   3.874
 4143SOL    HW112428   2.422   4.283   3.924
 4143SOL    HW212429   2.266   4.278   3.874
 4144SOL     OW12430   2.049   4.855   5.191
 4144SOL    HW112431   2.009   4.820   5.275
 4144SOL    HW212432   2.046   4.785   5.120
 4145SOL     OW12433   3.164   4.765   4.953
 4145SOL    HW112434   3.182   4.692   4.888
 4145SOL    HW212435   3.070   4.797   4.942
 4146SOL     OW12436   3.168   4.622   4.027
 4146SOL    HW112437   3.096   4.572   4.076
 4146SOL    HW212438   3.162   4.602   3.930
 4147SOL     OW12439   3.640   5.446   4.893
 4147SOL    HW112440   3.713   5.478   4.833
 4147SOL    HW212441   3.608   5.357   4.861
 4148SOL     OW12442   3.086   5.435   4.892
 4148SOL    HW112443   3.144   5.499   4.842
 4148SOL    HW212444   3.118   5.342   4.878
 4149SOL     OW12445   1.979   4.985   4.757
 4149SOL    HW112446   1.956   4.983   4.854
 4149SOL    HW212447   1.906   4.939   4.705
 4150SOL     OW12448   2.575   5.378   5.452
 4150SOL    HW112449   2.478   5.401   5.442
 4150SOL    HW212450   2.626   5.413   5.374
 4151SOL     OW12451   3.562   3.891   4.211
 4151SOL    HW112452   3.644   3.883   4.154
 4151SOL    HW212453   3.543   3.803   4.255
 4152SOL     OW12454   3.227   5.311   4.197
 4152SOL    HW112455   3.291   5.328   4.122
 4152SOL    HW212456   3.192   5.398   4.231
 4153SOL     OW12457   2.003   5.513   5.575
 4153SOL    HW112458   1.920   5.466   5.603
 4153SOL    HW212459   2.051   5.547   5.657
 4154SOL     OW12460   3.143   4.639   4.383
 4154SOL    HW112461   3.211   4.570   4.407
 4154SOL    HW212462   3.188   4.727   4.368
 4155SOL     OW12463   2.635   4.966   5.125
 4155SOL    HW112464   2.616   5.027   5.202
 4155SOL    HW212465   2.572   4.986   5.050
 4156SOL     OW12466   2.504   5.350   3.892
 4156SOL    HW112467   2.533   5.358   3.797
 4156SOL    HW212468   2.451   5.266   3.904
 4157SOL     OW12469   3.493   5.493   5.119
 4157SOL    HW112470   3.549   5.480   5.037
 4157SOL    HW212471   3.452   5.584   5.117
 4158SOL     OW12472   3.731   3.893   4.683
 4158SOL    HW112473   3.745   3.795   4.666
 4158SOL    HW212474   3.636   3.917   4.661
 4159SOL     OW12475   2.115   4.010   4.418
 4159SOL    HW112476   2.026   4.049   4.393
 4159SOL    HW212477   2.126   4.011   4.518
 4160SOL     OW12478   3.085   5.335   3.743
 4160SOL    HW112479   3.055   5.248   3.783
 4160SOL    HW212480   3.032   5.354   3.661
 4161SOL     OW12481   2.691   4.712   5.101
 4161SOL    HW112482   2.753   4.699   5.023
 4161SOL    HW212483   2.664   4.808   5.106
 4162SOL     OW12484   2.770   4.646   3.998
 4162SOL    HW112485   2.845   4.692   3.950
 4162SOL    HW212486   2.788   4.548   4.002
 4163SOL     OW12487   3.364   5.401   3.790
 4163SOL    HW112488   3.269   5.370   3.788
 4163SOL    HW212489   3.402   5.397   3.697
 4164SOL     OW12490   2.239   5.030   5.252
 4164SOL    HW112491   2.205   5.117   5.215
 4164SOL    HW212492   2.176   4.957   5.227
 4165SOL     OW12493   3.488   5.014   5.032
 4165SOL    HW112494   3.540   4.992   5.114
 4165SOL    HW212495   3.428   5.092   5.051
 4166SOL     OW12496   2.879   4.871   4.451
 4166SOL    HW112497   2.820   4.799   4.487
 4166SOL    HW212498   2.935   4.833   4.376
 4167SOL     OW12499   2.845   3.963   4.715
 4167SOL    HW112500   2.823   3.934   4.621
 4167SOL    HW212501   2.836   3.885   4.777
 4168SOL     OW12502   2.481   5.199   4.174
 4168SOL    HW112503   2.493   5.131   4.101
 4168SOL    HW212504   2.417   5.269   4.143
 4169SOL     OW12505   3.587   4.128   5.083
 4169SOL    HW112506   3.661   4.191   5.108
 4169SOL    HW212507   3.621   4.062   5.016
 4170SOL     OW12508   2.110   5.085   4.017
 4170SOL    HW112509   2.021   5.095   3.972
 4170SOL    HW212510   2.103   5.117   4.112
 4171SOL     OW12511   1.976   4.783   5.457
 4171SOL    HW112512   1.900   4.757   5.517
 4171SOL    HW212513   2.059   4.734   5.486
 4172SOL     OW12514   2.532   3.919   5.213
 4172SOL    HW112515   2.622   3.883   5.188
 4172SOL    HW212516   2.542   3.980   5.292
 4173SOL     OW12517   1.919   4.064   3.759
 4173SOL    HW112518   1.832   4.030   3.724
 4173SOL    HW212519   1.943   4.149   3.711
 4174SOL     OW12520   3.298   4.586   5.117
 4174SOL    HW112521   3.233   4.640   5.064
 4174SOL    HW212522   3.389   4.594   5.075
 4175SOL     OW12523   1.916   3.878   4.031
 4175SOL    HW112524   1.882   3.955   3.976
 4175SOL    HW212525   2.011   3.860   4.008
 4176SOL     OW12526   3.036   5.089   3.852
 4176SOL    HW112527   2.973   5.013   3.838
 4176SOL    HW212528   3.071   5.086   3.946
 4177SOL     OW12529   2.479   4.530   5.170
 4177SOL    HW112530   2.530   4.614   5.153
 4177SOL    HW212531   2.542   4.454   5.181
 4178SOL     OW12532   3.348   5.504   4.712
 4178SOL    HW112533   3.361   5.583   4.651
 4178SOL    HW212534   3.418   5.506   4.784
 4179SOL     OW12535   2.581   4.285   5.428
 4179SOL    HW112536   2.601   4.356   5.495
 4179SOL    HW212537   2.600   4.195   5.468
 4180SOL     OW12538   3.331   4.926   5.358
 4180SOL    HW112539   3.316   4.929   5.457
 4180SOL    HW212540   3.419   4.968   5.337
 4181SOL     OW12541   2.218   5.453   5.256
 4181SOL    HW112542   2.130   5.500   5.256
 4181SOL    HW212543   2.209   5.363   5.299
 4182SOL     OW12544   3.543   4.598   4.965
 4182SOL    HW112545   3.527   4.515   4.911
 4182SOL    HW212546   3.540   4.678   4.905
 4183SOL     OW12547   3.059   4.053   4.185
 4183SOL    HW112548   3.121   3.978   4.162
 4183SOL    HW212549   3.096   4.104   4.263
 4184SOL     OW12550   2.389   4.456   4.421
 4184SOL    HW112551   2.446   4.538   4.417
 4184SOL    HW212552   2.340   4.445   4.334
 4185SOL     OW12553   3.602   4.119   5.385
 4185SOL    HW112554   3.600   4.134   5.286
 4185SOL    HW212555   3.534   4.050   5.409
 4186SOL     OW12556   3.614   4.684   5.205
 4186SOL    HW112557   3.605   4.783   5.196
 4186SOL    HW212558   3.601   4.640   5.116
 4187SOL     OW12559   2.702   5.135   3.739
 4187SOL    HW112560   2.709   5.114   3.837
 4187SOL    HW212561   2.760   5.213   3.717
 4188SOL     OW12562   2.539   5.511   4.657
 4188SOL    HW112563   2.502   5.604   4.662
 4188SOL    HW212564   2.638   5.516   4.648
 4189SOL     OW12565   2.727   4.702   4.594
 4189SOL    HW112566   2.798   4.636   4.618
 4189SOL    HW212567   2.692   4.745   4.677
 4190SOL     OW12568   2.945   4.754   3.799
 4190SOL    HW112569   2.903   4.781   3.713
 4190SOL    HW212570   3.008   4.678   3.782
 4191SOL     OW12571   3.685   5.307   4.585
 4191SOL    HW112572   3.603   5.308   4.527
 4191SOL    HW212573   3.670   5.244   4.661
 4192SOL     OW12574   2.055   5.029   5.584
 4192SOL    HW112575   2.017   4.944   5.547
 4192SOL    HW212576   2.016   5.048   5.673
 4193SOL     OW12577   1.980   4.941   4.342
 4193SOL    HW112578   1.980   4.914   4.438
 4193SOL    HW212579   2.062   4.905   4.297
 4194SOL     OW12580   2.598   5.109   5.345
 4194SOL    HW112581   2.501   5.097   5.368
 4194SOL    HW212582   2.629   5.197   5.381
 4195SOL     OW12583   3.683   3.897   4.954
 4195SOL    HW112584   3.677   3.804   4.990
 4195SOL    HW212585   3.713   3.894   4.859
 4196SOL     OW12586   2.263   4.153   4.242
 4196SOL    HW112587   2.316   4.082   4.196
 4196SOL    HW212588   2.200   4.110   4.306
 4197SOL     OW12589   3.563   5.195   4.826
 4197SOL    HW112590   3.476   5.184   4.778
 4197SOL    HW212591   3.569   5.128   4.900
 4198SOL     OW12592   2.168   4.271   4.993
 4198SOL    HW112593   2.230   4.225   5.057
 4198SOL    HW212594   2.192   4.246   4.899
 4199SOL     OW12595   2.676   5.278   4.431
 4199SOL    HW112596   2.691   5.295   4.334
 4199SOL    HW212597   2.589   5.231   4.444
 4200SOL     OW12598   3.265   3.956   4.858
 4200SOL    HW112599   3.348   3.915   4.897
 4200SOL    HW212600   3.221   4.014   4.927
 4201SOL     OW12601   2.834   3.751   4.896
 4201SOL    HW112602   2.790   3.683   4.837
 4201SOL    HW212603   2.926   3.719   4.919
 4202SOL     OW12604   2.704   5.014   4.063
 4202SOL    HW112605   2.645   4.936   4.087
 4202SOL    HW212606   2.753   5.044   4.144
 4203SOL     OW12607   2.512   5.277   5.008
 4203SOL    HW112608   2.502   5.361   5.062
 4203SOL    HW212609   2.600   5.276   4.962
 4204SOL     OW12610   3.242   3.795   3.880
 4204SOL    HW112611   3.291   3.751   3.805
 4204SOL    HW212612   3.168   3.736   3.911
 4205SOL     OW12613   3.176   4.175   4.398
 4205SOL    HW112614   3.126   4.262   4.395
 4205SOL    HW212615   3.183   4.143   4.492
 4206SOL     OW12616   3.473   3.950   4.625
 4206SOL    HW112617   3.407   3.961   4.699
 4206SOL    HW212618   3.468   4.028   4.564
 4207SOL     OW12619   1.895   4.816   4.015
 4207SOL    HW112620   1.995   4.814   4.014
 4207SOL    HW212621   1.860   4.722   4.017
 4208SOL     OW12622   2.745   5.358   4.003
 4208SOL    HW112623   2.657   5.341   3.959
 4208SOL    HW212624   2.736   5.433   4.068
 4209SOL     OW12625   2.098   4.360   5.720
 4209SOL    HW112626   2.013   4.368   5.772
 4209SOL    HW212627   2.078   4.337   5.625
 4210SOL     OW12628   3.629   4.328   5.820
 4210SOL    HW112629   3.627   4.352   5.723
 4210SOL    HW212630   3.553   4.266   5.841
 4211SOL     OW12631   2.112   5.420   0.035
 4211SOL    HW112632   2.126   5.484   0.111
 4211SOL    HW212633   2.121   5.468   5.948
 4212SOL     OW12634   2.466   4.689   5.752
 4212SOL    HW112635   2.496   4.751   5.680
 4212SOL    HW212636   2.492   4.726   5.841
 4213SOL     OW12637   3.697   5.503   5.930
 4213SOL    HW112638   3.707   5.447   0.012
 4213SOL    HW212639   3.732   5.595   5.949
 4214SOL     OW12640   1.833   5.342   5.700
 4214SOL    HW112641   1.874   5.255   5.725
 4214SOL    HW212642   1.834   5.404   5.779
 4215SOL     OW12643   3.573   4.631   0.206
 4215SOL    HW112644   3.663   4.633   0.250
 4215SOL    HW212645   3.577   4.685   0.122
 4216SOL     OW12646   3.524   4.841   5.966
 4216SOL    HW112647   3.624   4.842   5.974
 4216SOL    HW212648   3.485   4.891   0.044
 4217SOL     OW12649   3.378   4.721   5.776
 4217SOL    HW112650   3.340   4.633   5.804
 4217SOL    HW212651   3.424   4.763   5.855
 4218SOL     OW12652   2.434   4.438   5.876
 4218SOL    HW112653   2.442   4.521   5.819
 4218SOL    HW212654   2.411   4.464   5.969
 4219SOL     OW12655   2.717   4.085   5.759
 4219SOL    HW112656   2.770   4.136   5.692
 4219SOL    HW212657   2.747   3.989   5.758
 4220SOL     OW12658   2.184   4.667   5.842
 4220SOL    HW112659   2.274   4.681   5.800
 4220SOL    HW212660   2.133   4.601   5.788
 4221SOL     OW12661   3.002   5.511   5.814
 4221SOL    HW112662   2.913   5.472   5.839
 4221SOL    HW212663   3.038   5.463   5.734
 4222SOL     OW12664   3.512   5.060   5.630
 4222SOL    HW112665   3.495   5.156   5.653
 4222SOL    HW212666   3.424   5.013   5.614
 4223SOL     OW12667   2.367   5.514   5.912
 4223SOL    HW112668   2.358   5.515   0.011
 4223SOL    HW212669   2.424   5.436   5.884
 4224SOL     OW12670   2.456   3.842   5.674
 4224SOL    HW112671   2.542   3.792   5.683
 4224SOL    HW212672   2.402   3.802   5.600
 4225SOL     OW12673   3.276   4.915   5.618
 4225SOL    HW112674   3.315   4.836   5.665
 4225SOL    HW212675   3.212   4.962   5.678
 4226SOL     OW12676   2.167   3.768   5.790
 4226SOL    HW112677   2.211   3.832   5.727
 4226SOL    HW212678   2.237   3.714   5.838
 4227SOL     OW12679   2.863   4.235   5.584
 4227SOL    HW112680   2.824   4.323   5.558
 4227SOL    HW212681   2.942   4.251   5.644
 4228SOL     OW12682   3.718   4.541   5.965
 4228SOL    HW112683   3.740   4.485   0.044
 4228SOL    HW212684   3.686   4.482   5.890
 4229SOL     OW12685   2.347   5.148   5.756
 4229SOL    HW112686   2.271   5.113   5.812
 4229SOL    HW212687   2.342   5.107   5.665
 4230SOL     OW12688   3.563   5.063   0.331
 4230SOL    HW112689   3.648   5.013   0.317
 4230SOL    HW212690   3.508   5.061   0.247
 4231SOL     OW12691   3.233   4.305   5.664
 4231SOL    HW112692   3.161   4.271   5.725
 4231SOL    HW212693   3.322   4.295   5.709
 4232SOL     OW12694   2.417   3.988   5.904
 4232SOL    HW112695   2.417   3.927   5.824
 4232SOL    HW212696   2.400   4.082   5.874
 4233SOL     OW12697   2.250   4.843   0.042
 4233SOL    HW112698   2.225   4.933   0.007
 4233SOL    HW212699   2.204   4.773   5.987
 4234SOL     OW12700   3.037   4.231   5.832
 4234SOL    HW112701   3.078   4.141   5.844
 4234SOL    HW212702   2.975   4.250   5.907
 4235SOL     OW12703   2.177   3.792   0.204
 4235SOL    HW112704   2.220   3.882   0.195
 4235SOL    HW212705   2.243   3.728   0.243
 4236SOL     OW12706   3.396   4.012   5.719
 4236SOL    HW112707   3.342   3.928   5.714
 4236SOL    HW212708   3.411   4.036   5.815
 4237SOL     OW12709   3.163   4.556   5.621
 4237SOL    HW112710   3.186   4.459   5.622
 4237SOL    HW212711   3.197   4.597   5.536
 4238SOL     OW12712   1.882   5.038   5.785
 4238SOL    HW112713   1.804   5.046   5.723
 4238SOL    HW212714   1.879   4.950   5.832
 4239SOL     OW12715   2.675   4.324   5.882
 4239SOL    HW112716   2.680   4.233   5.843
 4239SOL    HW212717   2.580   4.356   5.882
 4240SOL     OW12718   2.327   4.218   5.755
 4240SOL    HW112719   2.387   4.288   5.794
 4240SOL    HW212720   2.240   4.259   5.729
 4241SOL     OW12721   3.561   3.808   0.146
 4241SOL    HW112722   3.570   3.866   0.065
 4241SOL    HW212723   3.551   3.713   0.118
 4242SOL     OW12724   2.538   5.331   5.749
 4242SOL    HW112725   2.538   5.363   5.654
 4242SOL    HW212726   2.469   5.260   5.760
 4243SOL     OW12727   3.082   5.354   5.601
 4243SOL    HW112728   3.057   5.267   5.642
 4243SOL    HW212729   3.025   5.370   5.520
 4244SOL     OW12730   2.801   4.596   5.883
 4244SOL    HW112731   2.855   4.631   5.806
 4244SOL    HW212732   2.773   4.502   5.864
 4245SOL     OW12733   3.355   5.426   5.644
 4245SOL    HW112734   3.264   5.385   5.637
 4245SOL    HW212735   3.405   5.411   5.559
 4246SOL     OW12736   2.964   4.826   0.344
 4246SOL    HW112737   2.865   4.826   0.361
 4246SOL    HW212738   2.981   4.799   0.249
 4247SOL     OW12739   2.122   5.089   5.905
 4247SOL    HW112740   2.033   5.066   5.867
 4247SOL    HW212741   2.115   5.174   5.958
 4248SOL     OW12742   1.922   4.086   5.647
 4248SOL    HW112743   1.833   4.057   5.613
 4248SOL    HW212744   1.964   4.150   5.582
 4249SOL     OW12745   1.931   3.872   5.893
 4249SOL    HW112746   1.906   3.895   5.799
 4249SOL    HW212747   2.025   3.840   5.896
 4250SOL     OW12748   3.061   5.090   5.741
 4250SOL    HW112749   2.976   5.052   5.704
 4250SOL    HW212750   3.079   5.049   5.831
 4251SOL     OW12751   3.116   4.009   0.001
 4251SOL    HW112752   3.190   3.962   0.050
 4251SOL    HW212753   3.079   4.081   0.059
 4252SOL     OW12754   2.713   5.122   5.609
 4252SOL    HW112755   2.671   5.186   5.673
 4252SOL    HW212756   2.775   5.172   5.548
 4253SOL     OW12757   2.944   4.689   5.682
 4253SOL    HW112758   2.904   4.734   5.602
 4253SOL    HW212759   3.032   4.649   5.657
 4254SOL     OW12760   3.244   3.797   5.732
 4254SOL    HW112761   3.278   3.722   5.676
 4254SOL    HW212762   3.158   3.770   5.777
 4255SOL     OW12763   1.927   4.785   5.897
 4255SOL    HW112764   2.024   4.762   5.886
 4255SOL    HW212765   1.874   4.701   5.906
 4256SOL     OW12766   2.773   5.385   5.888
 4256SOL    HW112767   2.687   5.355   5.846
 4256SOL    HW212768   2.753   5.455   5.957
 4257SOL     OW12769   2.105   5.838   0.956
 4257SOL    HW112770   2.134   5.813   1.049
 4257SOL    HW212771   2.006   5.826   0.948
 4258SOL     OW12772   1.874   5.949   0.682
 4258SOL    HW112773   1.782   5.963   0.716
 4258SOL    HW212774   1.870   5.914   0.588
 4259SOL     OW12775   2.311   5.995   1.479
 4259SOL    HW112776   2.377   5.930   1.440
 4259SOL    HW212777   2.224   5.949   1.494
 4260SOL     OW12778   3.466   0.032   0.711
 4260SOL    HW112779   3.371   0.038   0.681
 4260SOL    HW212780   3.482   0.100   0.782
 4261SOL     OW12781   3.406   5.732   1.435
 4261SOL    HW112782   3.464   5.805   1.398
 4261SOL    HW212783   3.421   5.724   1.534
 4262SOL     OW12784   2.684   5.582   0.494
 4262SOL    HW112785   2.729   5.669   0.473
 4262SOL    HW212786   2.587   5.598   0.515
 4263SOL     OW12787   2.162   5.814   1.849
 4263SOL    HW112788   2.220   5.890   1.820
 4263SOL    HW212789   2.071   5.849   1.872
 4264SOL     OW12790   3.147   5.935   0.926
 4264SOL    HW112791   3.052   5.908   0.909
 4264SOL    HW212792   3.187   5.877   0.996
 4265SOL     OW12793   2.386   5.742   0.917
 4265SOL    HW112794   2.403   5.785   1.006
 4265SOL    HW212795   2.354   5.811   0.852
 4266SOL     OW12796   2.054   5.899   1.503
 4266SOL    HW112797   1.963   5.892   1.462
 4266SOL    HW212798   2.062   5.833   1.578
 4267SOL     OW12799   3.260   5.728   0.411
 4267SOL    HW112800   3.260   5.712   0.312
 4267SOL    HW212801   3.353   5.743   0.442
 4268SOL     OW12802   3.397   5.787   1.755
 4268SOL    HW112803   3.392   5.824   1.848
 4268SOL    HW212804   3.347   5.700   1.752
 4269SOL     OW12805   2.485   5.704   0.128
 4269SOL    HW112806   2.579   5.676   0.112
 4269SOL    HW212807   2.454   5.763   0.053
 4270SOL     OW12808   2.608   5.853   1.730
 4270SOL    HW112809   2.686   5.793   1.748
 4270SOL    HW212810   2.547   5.853   1.810
 4271SOL     OW12811   3.297   0.230   1.427
 4271SOL    HW112812   3.243   0.193   1.503
 4271SOL    HW212813   3.238   0.279   1.364
 4272SOL     OW12814   2.429   5.640   0.495
 4272SOL    HW112815   2.352   5.636   0.559
 4272SOL    HW212816   2.412   5.712   0.428
 4273SOL     OW12817   2.795   5.827   0.453
 4273SOL    HW112818   2.749   5.897   0.507
 4273SOL    HW212819   2.891   5.852   0.439
 4274SOL     OW12820   2.428   5.804   1.173
 4274SOL    HW112821   2.496   5.755   1.227
 4274SOL    HW212822   2.342   5.807   1.224
 4275SOL     OW12823   2.813   5.654   0.739
 4275SOL    HW112824   2.773   5.626   0.652
 4275SOL    HW212825   2.856   5.575   0.782
 4276SOL     OW12826   2.382   5.867   0.330
 4276SOL    HW112827   2.429   5.829   0.251
 4276SOL    HW212828   2.421   5.957   0.353
 4277SOL     OW12829   2.805   5.648   1.406
 4277SOL    HW112830   2.824   5.630   1.309
 4277SOL    HW212831   2.872   5.713   1.442
 4278SOL     OW12832   2.833   5.691   1.739
 4278SOL    HW112833   2.900   5.714   1.669
 4278SOL    HW212834   2.848   5.596   1.769
 4279SOL     OW12835   2.319   5.614   1.744
 4279SOL    HW112836   2.278   5.562   1.670
 4279SOL    HW212837   2.260   5.691   1.768
 4280SOL     OW12838   2.157   5.764   1.224
 4280SOL    HW112839   2.099   5.806   1.293
 4280SOL    HW212840   2.138   5.666   1.219
 4281SOL     OW12841   2.652   0.197   1.043
 4281SOL    HW112842   2.623   0.170   0.951
 4281SOL    HW212843   2.573   0.229   1.095
 4282SOL     OW12844   2.203   5.642   0.647
 4282SOL    HW112845   2.167   5.731   0.675
 4282SOL    HW212846   2.202   5.580   0.725
 4283SOL     OW12847   3.348   5.859   0.149
 4283SOL    HW112848   3.333   5.760   0.142
 4283SOL    HW212849   3.425   5.876   0.211
 4284SOL     OW12850   2.254   0.040   1.015
 4284SOL    HW112851   2.196   5.965   0.985
 4284SOL    HW212852   2.287   0.091   0.936
 4285SOL     OW12853   2.994   5.849   1.487
 4285SOL    HW112854   3.008   5.911   1.564
 4285SOL    HW212855   2.987   5.902   1.403
 4286SOL     OW12856   2.671   0.166   0.357
 4286SOL    HW112857   2.657   0.089   0.295
 4286SOL    HW212858   2.587   0.220   0.363
 4287SOL     OW12859   2.789   5.645   0.114
 4287SOL    HW112860   2.830   5.706   0.046
 4287SOL    HW212861   2.805   5.681   0.206
 4288SOL     OW12862   3.580   5.759   0.464
 4288SOL    HW112863   3.653   5.746   0.397
 4288SOL    HW212864   3.560   5.671   0.509
 4289SOL     OW12865   3.716   5.767   0.971
 4289SOL    HW112866   3.742   5.677   0.934
 4289SOL    HW212867   3.629   5.795   0.931
 4290SOL     OW12868   2.873   5.841   0.922
 4290SOL    HW112869   2.838   5.788   0.844
 4290SOL    HW212870   2.876   5.782   1.003
 4291SOL     OW12871   2.564   5.762   1.448
 4291SOL    HW112872   2.654   5.730   1.418
 4291SOL    HW212873   2.570   5.796   1.541
 4292SOL     OW12874   1.898   5.925   0.083
 4292SOL    HW112875   1.932   5.856   0.019
 4292SOL    HW212876   1.943   0.012   0.065
 4293SOL     OW12877   1.950   5.723   0.328
 4293SOL    HW112878   1.889   5.765   0.261
 4293SOL    HW212879   2.037   5.698   0.283
 4294SOL     OW12880   3.055   5.906   0.430
 4294SOL    HW112881   3.121   5.831   0.430
 4294SOL    HW212882   3.100   5.990   0.461
 4295SOL     OW12883   3.623   5.842   1.604
 4295SOL    HW112884   3.610   5.931   1.560
 4295SOL    HW212885   3.544   5.821   1.661
 4296SOL     OW12886   3.668   5.767   1.240
 4296SOL    HW112887   3.683   5.671   1.262
 4296SOL    HW212888   3.679   5.781   1.141
 4297SOL     OW12889   3.266   5.799   1.116
 4297SOL    HW112890   3.320   5.717   1.134
 4297SOL    HW212891   3.259   5.853   1.200
 4298SOL     OW12892   2.889   5.616   1.147
 4298SOL    HW112893   2.827   5.556   1.095
 4298SOL    HW212894   2.968   5.563   1.177
 4299SOL     OW12895   3.217   5.625   0.162
 4299SOL    HW112896   3.239   5.551   0.099
 4299SOL    HW212897   3.131   5.604   0.209
 4300SOL     OW12898   3.193   0.084   0.715
 4300SOL    HW112899   3.104   0.124   0.693
 4300SOL    HW212900   3.183   0.022   0.793
 4301SOL     OW12901   3.470   5.832   0.892
 4301SOL    HW112902   3.393   5.844   0.955
 4301SOL    HW212903   3.463   5.900   0.819
 4302SOL     OW12904   2.102   5.843   2.804
 4302SOL    HW112905   2.137   5.816   2.894
 4302SOL    HW212906   2.003   5.829   2.802
 4303SOL     OW12907   1.870   5.964   2.536
 4303SOL    HW112908   1.777   5.977   2.571
 4303SOL    HW212909   1.865   5.923   2.445
 4304SOL     OW12910   3.597   0.206   2.059
 4304SOL    HW112911   3.615   0.127   2.000
 4304SOL    HW212912   3.531   0.180   2.130
 4305SOL     OW12913   2.312   5.994   3.343
 4305SOL    HW112914   2.375   5.933   3.295
 4305SOL    HW212915   2.223   5.949   3.353
 4306SOL     OW12916   3.459   0.041   2.599
 4306SOL    HW112917   3.364   0.033   2.570
 4306SOL    HW212918   3.467   0.111   2.670
 4307SOL     OW12919   3.396   5.739   3.299
 4307SOL    HW112920   3.447   5.817   3.262
 4307SOL    HW212921   3.422   5.724   3.394
 4308SOL     OW12922   2.682   5.556   2.306
 4308SOL    HW112923   2.718   5.649   2.311
 4308SOL    HW212924   2.585   5.556   2.328
 4309SOL     OW12925   2.162   5.811   3.707
 4309SOL    HW112926   2.219   5.886   3.672
 4309SOL    HW212927   2.072   5.847   3.733
 4310SOL     OW12928   3.139   5.931   2.792
 4310SOL    HW112929   3.045   5.901   2.775
 4310SOL    HW212930   3.178   5.879   2.868
 4311SOL     OW12931   2.743   5.949   2.009
 4311SOL    HW112932   2.831   5.982   1.977
 4311SOL    HW212933   2.756   5.875   2.075
 4312SOL     OW12934   2.369   5.740   2.779
 4312SOL    HW112935   2.395   5.784   2.866
 4312SOL    HW212936   2.360   5.810   2.708
 4313SOL     OW12937   2.054   5.899   3.368
 4313SOL    HW112938   1.963   5.892   3.326
 4313SOL    HW212939   2.064   5.828   3.437
 4314SOL     OW12940   3.236   5.733   2.283
 4314SOL    HW112941   3.250   5.709   2.187
 4314SOL    HW212942   3.323   5.728   2.332
 4315SOL     OW12943   3.394   5.802   3.627
 4315SOL    HW112944   3.391   5.830   3.723
 4315SOL    HW212945   3.335   5.722   3.614
 4316SOL     OW12946   2.474   5.713   1.938
 4316SOL    HW112947   2.534   5.641   1.974
 4316SOL    HW212948   2.421   5.677   1.861
 4317SOL     OW12949   2.608   5.858   3.594
 4317SOL    HW112950   2.687   5.799   3.610
 4317SOL    HW212951   2.545   5.852   3.671
 4318SOL     OW12952   3.298   0.224   3.292
 4318SOL    HW112953   3.246   0.197   3.373
 4318SOL    HW212954   3.240   0.275   3.229
 4319SOL     OW12955   2.430   5.640   2.345
 4319SOL    HW112956   2.353   5.646   2.408
 4319SOL    HW212957   2.442   5.727   2.297
 4320SOL     OW12958   2.145   5.628   2.049
 4320SOL    HW112959   2.166   5.700   1.983
 4320SOL    HW212960   2.228   5.577   2.070
 4321SOL     OW12961   2.773   5.810   2.313
 4321SOL    HW112962   2.713   5.881   2.351
 4321SOL    HW212963   2.867   5.842   2.317
 4322SOL     OW12964   2.428   5.800   3.030
 4322SOL    HW112965   2.496   5.753   3.086
 4322SOL    HW212966   2.342   5.809   3.081
 4323SOL     OW12967   2.824   5.659   2.602
 4323SOL    HW112968   2.796   5.657   2.506
 4323SOL    HW212969   2.841   5.565   2.633
 4324SOL     OW12970   2.455   5.859   2.173
 4324SOL    HW112971   2.450   5.819   2.082
 4324SOL    HW212972   2.437   5.957   2.168
 4325SOL     OW12973   2.802   5.649   3.279
 4325SOL    HW112974   2.831   5.628   3.185
 4325SOL    HW212975   2.858   5.724   3.315
 4326SOL     OW12976   2.836   5.692   3.606
 4326SOL    HW112977   2.899   5.717   3.533
 4326SOL    HW212978   2.848   5.596   3.631
 4327SOL     OW12979   2.315   5.610   3.607
 4327SOL    HW112980   2.275   5.560   3.530
 4327SOL    HW212981   2.256   5.687   3.631
 4328SOL     OW12982   2.156   5.765   3.089
 4328SOL    HW112983   2.099   5.809   3.158
 4328SOL    HW212984   2.136   5.667   3.087
 4329SOL     OW12985   2.643   0.222   2.902
 4329SOL    HW112986   2.610   0.190   2.813
 4329SOL    HW212987   2.566   0.235   2.964
 4330SOL     OW12988   2.215   5.654   2.502
 4330SOL    HW112989   2.165   5.737   2.528
 4330SOL    HW212990   2.212   5.589   2.578
 4331SOL     OW12991   3.424   5.859   2.028
 4331SOL    HW112992   3.373   5.773   2.022
 4331SOL    HW212993   3.418   5.896   2.121
 4332SOL     OW12994   2.241   0.049   2.873
 4332SOL    HW112995   2.186   5.971   2.842
 4332SOL    HW212996   2.280   0.096   2.794
 4333SOL     OW12997   2.987   5.856   3.360
 4333SOL    HW112998   3.003   5.919   3.436
 4333SOL    HW212999   2.996   5.905   3.273
 4334SOL     OW13000   2.705   0.144   2.172
 4334SOL    HW113001   2.712   0.061   2.118
 4334SOL    HW213002   2.611   0.178   2.170
 4335SOL     OW13003   3.574   5.760   2.344
 4335SOL    HW113004   3.643   5.754   2.271
 4335SOL    HW213005   3.558   5.669   2.382
 4336SOL     OW13006   3.702   5.765   2.823
 4336SOL    HW113007   3.729   5.675   2.789
 4336SOL    HW213008   3.609   5.787   2.793
 4337SOL     OW13009   2.886   5.833   2.785
 4337SOL    HW113010   2.858   5.776   2.708
 4337SOL    HW213011   2.883   5.779   2.869
 4338SOL     OW13012   2.561   5.770   3.300
 4338SOL    HW113013   2.650   5.730   3.278
 4338SOL    HW213014   2.567   5.814   3.390
 4339SOL     OW13015   1.918   5.912   1.926
 4339SOL    HW113016   1.840   5.903   1.864
 4339SOL    HW213017   1.962   0.001   1.912
 4340SOL     OW13018   1.939   5.751   2.177
 4340SOL    HW113019   1.922   5.811   2.099
 4340SOL    HW213020   2.031   5.713   2.170
 4341SOL     OW13021   3.032   5.901   2.317
 4341SOL    HW113022   3.098   5.826   2.307
 4341SOL    HW213023   3.080   5.985   2.343
 4342SOL     OW13024   3.618   5.844   3.470
 4342SOL    HW113025   3.605   5.935   3.430
 4342SOL    HW213026   3.542   5.823   3.532
 4343SOL     OW13027   3.676   5.770   3.098
 4343SOL    HW113028   3.679   5.673   3.124
 4343SOL    HW213029   3.692   5.778   3.000
 4344SOL     OW13030   3.265   5.803   2.985
 4344SOL    HW113031   3.343   5.741   2.994
 4344SOL    HW213032   3.254   5.856   3.069
 4345SOL     OW13033   2.882   5.605   3.018
 4345SOL    HW113034   2.822   5.547   2.964
 4345SOL    HW213035   2.959   5.551   3.054
 4346SOL     OW13036   3.247   5.650   2.008
 4346SOL    HW113037   3.296   5.573   1.968
 4346SOL    HW213038   3.157   5.619   2.041
 4347SOL     OW13039   3.190   0.077   2.571
 4347SOL    HW113040   3.108   0.134   2.562
 4347SOL    HW213041   3.177   0.012   2.646
 4348SOL     OW13042   3.435   5.820   2.755
 4348SOL    HW113043   3.345   5.833   2.798
 4348SOL    HW213044   3.452   5.895   2.691
 4349SOL     OW13045   2.100   5.842   4.672
 4349SOL    HW113046   2.134   5.818   4.763
 4349SOL    HW213047   2.002   5.826   4.667
 4350SOL     OW13048   1.871   5.968   4.398
 4350SOL    HW113049   1.776   5.979   4.427
 4350SOL    HW213050   1.874   5.915   4.313
 4351SOL     OW13051   3.599   0.204   3.920
 4351SOL    HW113052   3.631   0.124   3.870
 4351SOL    HW213053   3.537   0.176   3.993
 4352SOL     OW13054   2.310   5.989   5.187
 4352SOL    HW113055   2.377   5.921   5.155
 4352SOL    HW213056   2.223   5.943   5.206
 4353SOL     OW13057   3.460   0.039   4.463
 4353SOL    HW113058   3.366   0.036   4.431
 4353SOL    HW213059   3.469   0.109   4.534
 4354SOL     OW13060   3.405   5.742   5.154
 4354SOL    HW113061   3.465   5.816   5.124
 4354SOL    HW213062   3.406   5.736   5.254
 4355SOL     OW13063   2.686   5.553   4.176
 4355SOL    HW113064   2.726   5.644   4.187
 4355SOL    HW213065   2.588   5.557   4.193
 4356SOL     OW13066   2.175   5.808   5.575
 4356SOL    HW113067   2.229   5.879   5.529
 4356SOL    HW213068   2.088   5.847   5.605
 4357SOL     OW13069   3.136   5.935   4.655
 4357SOL    HW113070   3.043   5.902   4.639
 4357SOL    HW213071   3.175   5.888   4.734
 4358SOL     OW13072   2.730   5.928   3.889
 4358SOL    HW113073   2.819   5.956   3.852
 4358SOL    HW213074   2.742   5.847   3.947
 4359SOL     OW13075   2.370   5.741   4.639
 4359SOL    HW113076   2.392   5.795   4.721
 4359SOL    HW213077   2.366   5.802   4.560
 4360SOL     OW13078   2.066   5.891   5.241
 4360SOL    HW113079   1.977   5.887   5.195
 4360SOL    HW213080   2.063   5.837   5.325
 4361SOL     OW13081   3.238   5.737   4.146
 4361SOL    HW113082   3.253   5.714   4.050
 4361SOL    HW213083   3.323   5.726   4.197
 4362SOL     OW13084   3.391   5.764   5.437
 4362SOL    HW113085   3.388   5.806   5.528
 4362SOL    HW213086   3.357   5.670   5.443
 4363SOL     OW13087   2.475   5.713   3.796
 4363SOL    HW113088   2.534   5.641   3.834
 4363SOL    HW213089   2.420   5.674   3.722
 4364SOL     OW13090   2.616   5.851   5.464
 4364SOL    HW113091   2.692   5.787   5.473
 4364SOL    HW213092   2.544   5.827   5.530
 4365SOL     OW13093   3.295   0.237   5.166
 4365SOL    HW113094   3.242   0.199   5.243
 4365SOL    HW213095   3.233   0.285   5.104
 4366SOL     OW13096   2.437   5.647   4.215
 4366SOL    HW113097   2.358   5.651   4.275
 4366SOL    HW213098   2.443   5.732   4.162
 4367SOL     OW13099   2.143   5.626   3.908
 4367SOL    HW113100   2.172   5.693   3.841
 4367SOL    HW213101   2.223   5.576   3.943
 4368SOL     OW13102   2.774   5.808   4.192
 4368SOL    HW113103   2.711   5.881   4.221
 4368SOL    HW213104   2.868   5.843   4.193
 4369SOL     OW13105   2.426   5.806   4.897
 4369SOL    HW113106   2.490   5.752   4.951
 4369SOL    HW213107   2.337   5.809   4.943
 4370SOL     OW13108   2.823   5.663   4.467
 4370SOL    HW113109   2.803   5.671   4.369
 4370SOL    HW213110   2.833   5.566   4.491
 4371SOL     OW13111   2.447   5.846   4.037
 4371SOL    HW113112   2.443   5.807   3.944
 4371SOL    HW213113   2.437   5.945   4.032
 4372SOL     OW13114   2.813   5.640   5.147
 4372SOL    HW113115   2.834   5.627   5.050
 4372SOL    HW213116   2.877   5.707   5.186
 4373SOL     OW13117   2.839   5.694   5.479
 4373SOL    HW113118   2.890   5.737   5.405
 4373SOL    HW213119   2.858   5.596   5.480
 4374SOL     OW13120   2.319   5.600   5.462
 4374SOL    HW113121   2.285   5.549   5.383
 4374SOL    HW213122   2.249   5.663   5.493
 4375SOL     OW13123   2.155   5.757   4.956
 4375SOL    HW113124   2.091   5.799   5.020
 4375SOL    HW213125   2.138   5.658   4.951
 4376SOL     OW13126   2.645   0.211   4.764
 4376SOL    HW113127   2.613   0.186   4.673
 4376SOL    HW213128   2.567   0.231   4.823
 4377SOL     OW13129   2.218   5.660   4.367
 4377SOL    HW113130   2.161   5.739   4.390
 4377SOL    HW213131   2.214   5.594   4.442
 4378SOL     OW13132   3.431   5.853   3.893
 4378SOL    HW113133   3.379   5.768   3.890
 4378SOL    HW213134   3.421   5.895   3.984
 4379SOL     OW13135   2.244   0.045   4.732
 4379SOL    HW113136   2.193   5.966   4.700
 4379SOL    HW213137   2.285   0.093   4.654
 4380SOL     OW13138   2.995   5.845   5.231
 4380SOL    HW113139   3.017   5.915   5.298
 4380SOL    HW213140   2.996   5.886   5.139
 4381SOL     OW13141   2.700   0.149   4.016
 4381SOL    HW113142   2.704   0.055   3.982
 4381SOL    HW213143   2.605   0.176   4.027
 4382SOL     OW13144   3.574   5.758   4.205
 4382SOL    HW113145   3.641   5.755   4.131
 4382SOL    HW213146   3.560   5.666   4.242
 4383SOL     OW13147   3.704   5.773   4.698
 4383SOL    HW113148   3.727   5.681   4.667
 4383SOL    HW213149   3.614   5.799   4.662
 4384SOL     OW13150   2.891   5.832   4.650
 4384SOL    HW113151   2.864   5.774   4.574
 4384SOL    HW213152   2.886   5.780   4.736
 4385SOL     OW13153   2.552   5.787   5.178
 4385SOL    HW113154   2.638   5.778   5.127
 4385SOL    HW213155   2.569   5.828   5.267
 4386SOL     OW13156   1.921   5.914   3.790
 4386SOL    HW113157   1.846   5.904   3.725
 4386SOL    HW213158   1.967   0.001   3.775
 4387SOL     OW13159   1.942   5.741   4.032
 4387SOL    HW113160   1.923   5.812   3.964
 4387SOL    HW213161   2.031   5.699   4.012
 4388SOL     OW13162   3.026   5.905   4.182
 4388SOL    HW113163   3.094   5.831   4.175
 4388SOL    HW213164   3.072   5.990   4.207
 4389SOL     OW13165   3.632   5.860   5.336
 4389SOL    HW113166   3.622   5.944   5.283
 4389SOL    HW213167   3.544   5.836   5.378
 4390SOL     OW13168   3.660   5.771   4.963
 4390SOL    HW113169   3.672   5.677   4.993
 4390SOL    HW213170   3.677   5.778   4.865
 4391SOL     OW13171   3.262   5.804   4.852
 4391SOL    HW113172   3.348   5.754   4.855
 4391SOL    HW213173   3.249   5.852   4.939
 4392SOL     OW13174   2.885   5.607   4.888
 4392SOL    HW113175   2.820   5.548   4.839
 4392SOL    HW213176   2.968   5.555   4.908
 4393SOL     OW13177   3.246   5.651   3.873
 4393SOL    HW113178   3.297   5.576   3.831
 4393SOL    HW213179   3.157   5.617   3.903
 4394SOL     OW13180   3.192   0.079   4.439
 4394SOL    HW113181   3.109   0.133   4.427
 4394SOL    HW213182   3.179   0.013   4.513
 4395SOL     OW13183   3.427   5.819   4.620
 4395SOL    HW113184   3.334   5.830   4.655
 4395SOL    HW213185   3.448   5.893   4.556
 4396SOL     OW13186   3.582   0.195   5.804
 4396SOL    HW113187   3.587   0.155   5.713
 4396SOL    HW213188   3.621   0.132   5.871
 4397SOL     OW13189   2.898   0.222   5.990
 4397SOL    HW113190   2.941   0.312   5.999
 4397SOL    HW213191   2.805   0.233   5.953
 4398SOL     OW13192   2.731   5.975   5.728
 4398SOL    HW113193   2.821   0.006   5.699
 4398SOL    HW213194   2.723   5.876   5.713
 4399SOL     OW13195   2.241   0.252   0.101
 4399SOL    HW113196   2.321   0.301   0.065
 4399SOL    HW213197   2.159   0.285   0.055
 4400SOL     OW13198   2.474   5.701   5.643
 4400SOL    HW113199   2.507   5.620   5.691
 4400SOL    HW213200   2.415   5.673   5.567
 4401SOL     OW13201   2.157   5.620   5.774
 4401SOL    HW113202   2.176   5.688   5.703
 4401SOL    HW213203   2.244   5.585   5.811
 4402SOL     OW13204   2.440   5.864   5.893
 4402SOL    HW113205   2.415   5.801   5.820
 4402SOL    HW213206   2.441   5.958   5.857
 4403SOL     OW13207   2.166   5.637   0.195
 4403SOL    HW113208   2.186   5.734   0.185
 4403SOL    HW213209   2.242   5.593   0.244
 4404SOL     OW13210   3.405   5.879   5.696
 4404SOL    HW113211   3.365   5.789   5.715
 4404SOL    HW213212   3.410   5.932   5.781
 4405SOL     OW13213   2.659   0.182   5.884
 4405SOL    HW113214   2.686   0.096   5.841
 4405SOL    HW213215   2.561   0.196   5.874
 4406SOL     OW13216   3.561   5.675   0.166
 4406SOL    HW113217   3.593   5.719   0.082
 4406SOL    HW213218   3.509   5.593   0.142
 4407SOL     OW13219   1.923   5.913   5.627
 4407SOL    HW113220   1.849   5.883   5.566
 4407SOL    HW213221   1.970   5.991   5.586
 4408SOL     OW13222   1.950   5.775   5.869
 4408SOL    HW113223   1.922   5.815   5.782
 4408SOL    HW213224   2.028   5.715   5.854
 4409SOL     OW13225   3.242   5.662   5.727
 4409SOL    HW113226   3.272   5.583   5.673
 4409SOL    HW213227   3.160   5.638   5.778
 4410SOL     OW13228   3.967   0.694   0.128
 4410SOL    HW113229   3.893   0.659   0.186
 4410SOL    HW213230   3.988   0.628   0.057
 4411SOL     OW13231   3.965   0.266   0.980
 4411SOL    HW113232   4.013   0.204   1.042
 4411SOL    HW213233   3.871   0.233   0.966
 4412SOL     OW13234   3.722   0.333   0.677
 4412SOL    HW113235   3.656   0.386   0.731
 4412SOL    HW213236   3.674   0.287   0.602
 4413SOL     OW13237   4.251   1.281   1.158
 4413SOL    HW113238   4.190   1.320   1.089
 4413SOL    HW213239   4.266   1.349   1.230
 4414SOL     OW13240   5.272   1.496   0.684
 4414SOL    HW113241   5.244   1.485   0.779
 4414SOL    HW213242   5.201   1.546   0.634
 4415SOL     OW13243   4.844   0.677   0.648
 4415SOL    HW113244   4.905   0.756   0.652
 4415SOL    HW213245   4.778   0.681   0.723
 4416SOL     OW13246   5.510   0.600   0.193
 4416SOL    HW113247   5.452   0.614   0.113
 4416SOL    HW213248   5.460   0.548   0.263
 4417SOL     OW13249   4.465   1.154   1.050
 4417SOL    HW113250   4.376   1.181   1.088
 4417SOL    HW213251   4.507   1.233   1.005
 4418SOL     OW13252   4.583   0.798   1.797
 4418SOL    HW113253   4.555   0.887   1.834
 4418SOL    HW213254   4.619   0.810   1.705
 4419SOL     OW13255   4.380   0.984   0.704
 4419SOL    HW113256   4.461   0.964   0.759
 4419SOL    HW213257   4.323   1.050   0.753
 4420SOL     OW13258   4.419   1.145   1.811
 4420SOL    HW113259   4.471   1.231   1.814
 4420SOL    HW213260   4.324   1.165   1.788
 4421SOL     OW13261   4.073   1.434   1.030
 4421SOL    HW113262   3.983   1.408   0.997
 4421SOL    HW213263   4.114   1.500   0.967
 4422SOL     OW13264   5.204   1.515   1.343
 4422SOL    HW113265   5.268   1.592   1.351
 4422SOL    HW213266   5.132   1.524   1.412
 4423SOL     OW13267   4.183   0.440   1.462
 4423SOL    HW113268   4.256   0.373   1.454
 4423SOL    HW213269   4.100   0.395   1.497
 4424SOL     OW13270   5.315   0.444   0.739
 4424SOL    HW113271   5.268   0.488   0.663
 4424SOL    HW213272   5.306   0.499   0.821
 4425SOL     OW13273   3.975   1.699   0.515
 4425SOL    HW113274   4.017   1.787   0.536
 4425SOL    HW213275   3.964   1.690   0.416
 4426SOL     OW13276   4.836   1.329   1.694
 4426SOL    HW113277   4.893   1.339   1.776
 4426SOL    HW213278   4.784   1.244   1.700
 4427SOL     OW13279   3.990   1.436   0.546
 4427SOL    HW113280   3.983   1.535   0.548
 4427SOL    HW213281   3.917   1.396   0.602
 4428SOL     OW13282   3.955   1.085   0.885
 4428SOL    HW113283   3.962   0.994   0.926
 4428SOL    HW213284   3.926   1.151   0.955
 4429SOL     OW13285   4.350   1.763   1.446
 4429SOL    HW113286   4.258   1.740   1.479
 4429SOL    HW213287   4.371   1.858   1.469
 4430SOL     OW13288   4.329   0.948   0.115
 4430SOL    HW113289   4.266   1.024   0.097
 4430SOL    HW213290   4.398   0.977   0.182
 4431SOL     OW13291   5.383   0.098   1.479
 4431SOL    HW113292   5.327   0.147   1.412
 4431SOL    HW213293   5.376   0.144   1.567
 4432SOL     OW13294   3.844   0.638   0.581
 4432SOL    HW113295   3.794   0.556   0.609
 4432SOL    HW213296   3.839   0.707   0.653
 4433SOL     OW13297   5.565   1.735   0.320
 4433SOL    HW113298   5.629   1.683   0.377
 4433SOL    HW213299   5.592   1.831   0.319
 4434SOL     OW13300   3.696   1.582   0.127
 4434SOL    HW113301   3.769   1.516   0.109
 4434SOL    HW213302   3.723   1.640   0.204
 4435SOL     OW13303   5.382   0.901   0.689
 4435SOL    HW113304   5.468   0.860   0.660
 4435SOL    HW213305   5.354   0.971   0.622
 4436SOL     OW13306   5.360   1.092   0.507
 4436SOL    HW113307   5.372   1.122   0.413
 4436SOL    HW213308   5.382   1.168   0.569
 4437SOL     OW13309   3.859   0.732   1.594
 4437SOL    HW113310   3.959   0.731   1.583
 4437SOL    HW213311   3.825   0.825   1.577
 4438SOL     OW13312   4.315   1.385   0.708
 4438SOL    HW113313   4.265   1.299   0.722
 4438SOL    HW213314   4.299   1.418   0.615
 4439SOL     OW13315   5.026   1.234   1.434
 4439SOL    HW113316   5.048   1.180   1.353
 4439SOL    HW213317   5.094   1.217   1.505
 4440SOL     OW13318   4.529   0.018   0.579
 4440SOL    HW113319   4.569   0.091   0.523
 4440SOL    HW213320   4.429   0.019   0.568
 4441SOL     OW13321   3.914   0.964   1.266
 4441SOL    HW113322   3.999   0.918   1.241
 4441SOL    HW213323   3.836   0.909   1.238
 4442SOL     OW13324   5.193   1.066   0.190
 4442SOL    HW113325   5.129   0.991   0.174
 4442SOL    HW213326   5.268   1.034   0.249
 4443SOL     OW13327   4.917   1.813   1.636
 4443SOL    HW113328   4.902   1.879   1.562
 4443SOL    HW213329   4.953   1.728   1.597
 4444SOL     OW13330   4.014   0.214   1.829
 4444SOL    HW113331   4.079   0.289   1.834
 4444SOL    HW213332   3.921   0.249   1.843
 4445SOL     OW13333   5.204   1.422   0.927
 4445SOL    HW113334   5.143   1.433   1.005
 4445SOL    HW213335   5.203   1.327   0.898
 4446SOL     OW13336   5.367   1.730   0.576
 4446SOL    HW113337   5.359   1.706   0.480
 4446SOL    HW213338   5.352   1.649   0.632
 4447SOL     OW13339   4.336   0.734   0.307
 4447SOL    HW113340   4.337   0.801   0.233
 4447SOL    HW213341   4.253   0.746   0.361
 4448SOL     OW13342   5.046   0.352   0.944
 4448SOL    HW113343   4.952   0.318   0.938
 4448SOL    HW213344   5.095   0.303   1.016
 4449SOL     OW13345   5.313   1.654   0.301
 4449SOL    HW113346   5.404   1.695   0.303
 4449SOL    HW213347   5.287   1.636   0.206
 4450SOL     OW13348   4.524   0.628   1.465
 4450SOL    HW113349   4.497   0.588   1.553
 4450SOL    HW213350   4.495   0.568   1.391
 4451SOL     OW13351   5.111   0.516   1.691
 4451SOL    HW113352   5.090   0.548   1.783
 4451SOL    HW213353   5.184   0.449   1.695
 4452SOL     OW13354   4.702   0.874   1.562
 4452SOL    HW113355   4.760   0.803   1.522
 4452SOL    HW213356   4.649   0.919   1.490
 4453SOL     OW13357   4.733   0.394   1.227
 4453SOL    HW113358   4.647   0.418   1.273
 4453SOL    HW213359   4.714   0.339   1.147
 4454SOL     OW13360   4.783   0.674   0.387
 4454SOL    HW113361   4.793   0.680   0.486
 4454SOL    HW213362   4.700   0.625   0.364
 4455SOL     OW13363   3.811   0.811   0.780
 4455SOL    HW113364   3.884   0.786   0.844
 4455SOL    HW213365   3.754   0.882   0.821
 4456SOL     OW13366   3.862   1.822   1.567
 4456SOL    HW113367   3.871   1.813   1.666
 4456SOL    HW213368   3.794   1.892   1.546
 4457SOL     OW13369   4.546   0.357   0.159
 4457SOL    HW113370   4.618   0.405   0.109
 4457SOL    HW213371   4.585   0.279   0.208
 4458SOL     OW13372   5.435   0.597   1.818
 4458SOL    HW113373   5.398   0.686   1.792
 4458SOL    HW213374   5.448   0.541   1.737
 4459SOL     OW13375   5.090   1.159   0.563
 4459SOL    HW113376   5.176   1.136   0.518
 4459SOL    HW213377   5.026   1.195   0.495
 4460SOL     OW13378   4.273   0.214   0.891
 4460SOL    HW113379   4.283   0.213   0.990
 4460SOL    HW213380   4.273   0.309   0.858
 4461SOL     OW13381   4.736   1.450   0.453
 4461SOL    HW113382   4.684   1.527   0.416
 4461SOL    HW213383   4.780   1.478   0.539
 4462SOL     OW13384   4.065   1.798   0.856
 4462SOL    HW113385   4.118   1.714   0.859
 4462SOL    HW213386   4.124   1.876   0.877
 4463SOL     OW13387   5.532   1.059   0.886
 4463SOL    HW113388   5.467   1.081   0.813
 4463SOL    HW213389   5.483   1.052   0.973
 4464SOL     OW13390   4.993   1.553   1.532
 4464SOL    HW113391   5.011   1.459   1.560
 4464SOL    HW213392   4.897   1.562   1.506
 4465SOL     OW13393   3.984   0.939   0.227
 4465SOL    HW113394   4.076   0.977   0.228
 4465SOL    HW213395   3.984   0.853   0.177
 4466SOL     OW13396   5.186   0.728   0.732
 4466SOL    HW113397   5.177   0.678   0.819
 4466SOL    HW213398   5.269   0.784   0.734
 4467SOL     OW13399   4.174   1.287   1.773
 4467SOL    HW113400   4.153   1.301   1.677
 4467SOL    HW213401   4.090   1.265   1.823
 4468SOL     OW13402   4.873   1.751   0.237
 4468SOL    HW113403   4.793   1.715   0.285
 4468SOL    HW213404   4.890   1.696   0.155
 4469SOL     OW13405   3.936   0.310   1.521
 4469SOL    HW113406   3.851   0.343   1.480
 4469SOL    HW213407   3.915   0.265   1.608
 4470SOL     OW13408   5.363   1.388   0.090
 4470SOL    HW113409   5.313   1.467   0.053
 4470SOL    HW213410   5.370   1.318   0.019
 4471SOL     OW13411   4.218   1.741   0.305
 4471SOL    HW113412   4.252   1.801   0.377
 4471SOL    HW213413   4.294   1.709   0.249
 4472SOL     OW13414   5.105   0.110   0.433
 4472SOL    HW113415   5.097   0.099   0.334
 4472SOL    HW213416   5.202   0.108   0.459
 4473SOL     OW13417   3.981   1.807   1.179
 4473SOL    HW113418   4.010   1.725   1.229
 4473SOL    HW213419   3.960   1.783   1.084
 4474SOL     OW13420   4.662   1.715   0.902
 4474SOL    HW113421   4.710   1.652   0.963
 4474SOL    HW213422   4.620   1.664   0.828
 4475SOL     OW13423   4.094   0.679   0.461
 4475SOL    HW113424   4.116   0.582   0.474
 4475SOL    HW213425   3.999   0.695   0.489
 4476SOL     OW13426   5.250   0.230   1.754
 4476SOL    HW113427   5.243   0.274   1.843
 4476SOL    HW213428   5.178   0.161   1.745
 4477SOL     OW13429   4.350   0.073   0.118
 4477SOL    HW113430   4.442   0.078   0.078
 4477SOL    HW213431   4.283   0.104   0.052
 4478SOL     OW13432   4.485   0.265   1.755
 4478SOL    HW113433   4.575   0.222   1.763
 4478SOL    HW213434   4.435   0.255   1.842
 4479SOL     OW13435   4.638   1.535   1.183
 4479SOL    HW113436   4.594   1.485   1.109
 4479SOL    HW213437   4.712   1.480   1.222
 4480SOL     OW13438   5.065   0.606   1.450
 4480SOL    HW113439   5.099   0.578   1.540
 4480SOL    HW213440   5.109   0.691   1.422
 4481SOL     OW13441   4.499   1.387   0.907
 4481SOL    HW113442   4.585   1.425   0.873
 4481SOL    HW213443   4.438   1.367   0.830
 4482SOL     OW13444   4.658   0.491   0.901
 4482SOL    HW113445   4.605   0.476   0.817
 4482SOL    HW213446   4.719   0.412   0.916
 4483SOL     OW13447   4.285   0.066   0.495
 4483SOL    HW113448   4.212   0.053   0.563
 4483SOL    HW213449   4.267   0.150   0.444
 4484SOL     OW13450   5.065   1.204   5.993
 4484SOL    HW113451   5.143   1.156   0.032
 4484SOL    HW213452   4.997   1.223   0.064
 4485SOL     OW13453   4.037   0.002   0.168
 4485SOL    HW113454   4.063   0.088   0.122
 4485SOL    HW213455   4.103   5.982   0.240
 4486SOL     OW13456   4.716   0.306   0.486
 4486SOL    HW113457   4.660   0.262   0.417
 4486SOL    HW213458   4.813   0.296   0.462
 4487SOL     OW13459   4.813   0.673   1.439
 4487SOL    HW113460   4.747   0.603   1.464
 4487SOL    HW213461   4.905   0.633   1.440
 4488SOL     OW13462   4.938   1.570   0.808
 4488SOL    HW113463   4.992   1.595   0.727
 4488SOL    HW213464   4.997   1.571   0.889
 4489SOL     OW13465   4.169   1.155   0.755
 4489SOL    HW113466   4.094   1.121   0.812
 4489SOL    HW213467   4.136   1.168   0.662
 4490SOL     OW13468   5.024   1.816   0.578
 4490SOL    HW113469   5.052   1.890   0.518
 4490SOL    HW213470   4.980   1.853   0.660
 4491SOL     OW13471   4.727   0.535   0.040
 4491SOL    HW113472   4.650   0.573   5.989
 4491SOL    HW213473   4.765   0.606   0.100
 4492SOL     OW13474   3.802   0.554   1.409
 4492SOL    HW113475   3.888   0.534   1.362
 4492SOL    HW213476   3.816   0.630   1.472
 4493SOL     OW13477   4.273   0.279   1.194
 4493SOL    HW113478   4.316   0.212   1.255
 4493SOL    HW213479   4.173   0.273   1.204
 4494SOL     OW13480   4.573   0.430   0.658
 4494SOL    HW113481   4.517   0.484   0.595
 4494SOL    HW213482   4.641   0.378   0.606
 4495SOL     OW13483   4.733   0.041   0.736
 4495SOL    HW113484   4.650   0.046   0.680
 4495SOL    HW213485   4.733   5.956   0.789
 4496SOL     OW13486   5.136   1.159   0.853
 4496SOL    HW113487   5.082   1.090   0.901
 4496SOL    HW213488   5.111   1.160   0.757
 4497SOL     OW13489   5.213   0.572   0.950
 4497SOL    HW113490   5.152   0.493   0.953
 4497SOL    HW213491   5.270   0.573   1.032
 4498SOL     OW13492   5.651   0.772   0.365
 4498SOL    HW113493   5.696   0.720   0.438
 4498SOL    HW213494   5.595   0.711   0.310
 4499SOL     OW13495   4.195   1.389   0.202
 4499SOL    HW113496   4.102   1.372   0.235
 4499SOL    HW213497   4.196   1.378   0.102
 4500SOL     OW13498   5.430   1.290   0.699
 4500SOL    HW113499   5.518   1.312   0.656
 4500SOL    HW213500   5.365   1.364   0.682
 4501SOL     OW13501   5.124   0.623   0.130
 4501SOL    HW113502   5.052   0.582   0.185
 4501SOL    HW213503   5.165   0.553   0.072
 4502SOL     OW13504   4.272   0.266   0.324
 4502SOL    HW113505   4.260   0.199   0.250
 4502SOL    HW213506   4.260   0.358   0.287
 4503SOL     OW13507   5.461   1.281   1.576
 4503SOL    HW113508   5.538   1.222   1.554
 4503SOL    HW213509   5.494   1.368   1.612
 4504SOL     OW13510   4.781   1.346   1.360
 4504SOL    HW113511   4.692   1.322   1.399
 4504SOL    HW213512   4.853   1.303   1.414
 4505SOL     OW13513   5.336   1.658   1.653
 4505SOL    HW113514   5.324   1.676   1.555
 4505SOL    HW213515   5.415   1.598   1.666
 4506SOL     OW13516   4.764   1.180   1.122
 4506SOL    HW113517   4.771   1.245   1.197
 4506SOL    HW213518   4.759   1.230   1.035
 4507SOL     OW13519   5.355   1.080   1.100
 4507SOL    HW113520   5.346   1.153   1.167
 4507SOL    HW213521   5.295   1.098   1.023
 4508SOL     OW13522   4.647   0.150   1.367
 4508SOL    HW113523   4.681   0.080   1.305
 4508SOL    HW213524   4.716   0.169   1.437
 4509SOL     OW13525   4.704   1.088   1.719
 4509SOL    HW113526   4.607   1.093   1.743
 4509SOL    HW213527   4.717   1.015   1.651
 4510SOL     OW13528   4.408   1.052   0.395
 4510SOL    HW113529   4.383   1.043   0.492
 4510SOL    HW213530   4.480   0.986   0.374
 4511SOL     OW13531   4.137   0.807   1.251
 4511SOL    HW113532   4.212   0.818   1.316
 4511SOL    HW213533   4.096   0.716   1.263
 4512SOL     OW13534   4.992   0.409   1.299
 4512SOL    HW113535   5.018   0.492   1.349
 4512SOL    HW213536   4.897   0.417   1.268
 4513SOL     OW13537   3.785   1.547   1.340
 4513SOL    HW113538   3.732   1.612   1.286
 4513SOL    HW213539   3.879   1.579   1.350
 4514SOL     OW13540   4.099   1.148   0.502
 4514SOL    HW113541   4.106   1.209   0.423
 4514SOL    HW213542   4.129   1.056   0.476
 4515SOL     OW13543   4.299   0.534   0.871
 4515SOL    HW113544   4.288   0.603   0.800
 4515SOL    HW213545   4.372   0.562   0.934
 4516SOL     OW13546   4.984   1.346   0.374
 4516SOL    HW113547   5.023   1.428   0.418
 4516SOL    HW213548   4.886   1.342   0.393
 4517SOL     OW13549   5.048   1.441   1.143
 4517SOL    HW113550   5.103   1.468   1.221
 4517SOL    HW213551   4.992   1.362   1.167
 4518SOL     OW13552   5.341   0.636   0.503
 4518SOL    HW113553   5.273   0.664   0.571
 4518SOL    HW213554   5.334   0.696   0.423
 4519SOL     OW13555   4.068   1.544   1.286
 4519SOL    HW113556   4.074   1.492   1.201
 4519SOL    HW213557   4.160   1.565   1.318
 4520SOL     OW13558   4.120   0.726   1.570
 4520SOL    HW113559   4.174   0.785   1.510
 4520SOL    HW213560   4.181   0.663   1.618
 4521SOL     OW13561   5.338   0.818   1.675
 4521SOL    HW113562   5.242   0.846   1.672
 4521SOL    HW213563   5.386   0.853   1.595
 4522SOL     OW13564   4.723   0.140   1.763
 4522SOL    HW113565   4.795   0.192   1.717
 4522SOL    HW213566   4.698   0.061   1.707
 4523SOL     OW13567   4.184   5.998   1.746
 4523SOL    HW113568   4.197   0.001   1.647
 4523SOL    HW213569   4.148   0.086   1.777
 4524SOL     OW13570   4.264   0.866   1.005
 4524SOL    HW113571   4.320   0.949   1.007
 4524SOL    HW213572   4.227   0.849   1.096
 4525SOL     OW13573   5.058   0.851   1.033
 4525SOL    HW113574   4.963   0.849   1.003
 4525SOL    HW213575   5.102   0.765   1.007
 4526SOL     OW13576   4.939   0.500   0.260
 4526SOL    HW113577   4.966   0.435   0.331
 4526SOL    HW213578   4.882   0.572   0.300
 4527SOL     OW13579   4.010   0.197   1.276
 4527SOL    HW113580   3.988   0.212   1.372
 4527SOL    HW213581   4.028   0.100   1.261
 4528SOL     OW13582   3.760   1.280   1.303
 4528SOL    HW113583   3.820   1.231   1.367
 4528SOL    HW213584   3.771   1.378   1.317
 4529SOL     OW13585   4.493   0.650   1.045
 4529SOL    HW113586   4.563   0.599   0.995
 4529SOL    HW213587   4.475   0.737   0.999
 4530SOL     OW13588   5.503   0.950   1.832
 4530SOL    HW113589   5.444   0.893   1.774
 4530SOL    HW213590   5.455   0.972   1.917
 4531SOL     OW13591   4.079   0.019   0.656
 4531SOL    HW113592   4.049   0.114   0.658
 4531SOL    HW213593   4.003   5.959   0.681
 4532SOL     OW13594   5.367   0.384   0.386
 4532SOL    HW113595   5.402   0.307   0.440
 4532SOL    HW213596   5.338   0.458   0.446
 4533SOL     OW13597   4.775   0.770   0.959
 4533SOL    HW113598   4.763   0.776   1.058
 4533SOL    HW213599   4.735   0.685   0.925
 4534SOL     OW13600   4.718   1.569   1.724
 4534SOL    HW113601   4.678   1.613   1.644
 4534SOL    HW213602   4.753   1.479   1.699
 4535SOL     OW13603   5.593   1.509   1.634
 4535SOL    HW113604   5.609   1.504   1.535
 4535SOL    HW213605   5.677   1.538   1.680
 4536SOL     OW13606   4.080   0.944   1.771
 4536SOL    HW113607   4.117   0.934   1.863
 4536SOL    HW213608   4.099   0.861   1.718
 4537SOL     OW13609   5.275   0.318   0.153
 4537SOL    HW113610   5.303   0.225   0.132
 4537SOL    HW213611   5.310   0.344   0.243
 4538SOL     OW13612   5.056   0.863   0.026
 4538SOL    HW113613   5.076   0.769   0.054
 4538SOL    HW213614   5.009   0.862   5.938
 4539SOL     OW13615   4.784   1.367   0.896
 4539SOL    HW113616   4.787   1.291   0.832
 4539SOL    HW213617   4.834   1.445   0.858
 4540SOL     OW13618   4.016   0.767   0.958
 4540SOL    HW113619   4.106   0.806   0.941
 4540SOL    HW213620   4.026   0.673   0.989
 4541SOL     OW13621   4.069   0.503   1.011
 4541SOL    HW113622   4.028   0.412   1.006
 4541SOL    HW213623   4.144   0.510   0.945
 4542SOL     OW13624   4.896   0.365   1.692
 4542SOL    HW113625   4.824   0.423   1.730
 4542SOL    HW213626   4.979   0.419   1.679
 4543SOL     OW13627   4.880   0.180   1.509
 4543SOL    HW113628   4.883   0.256   1.575
 4543SOL    HW213629   4.893   0.216   1.417
 4544SOL     OW13630   3.812   1.779   0.935
 4544SOL    HW113631   3.781   1.689   0.904
 4544SOL    HW213632   3.901   1.799   0.893
 4545SOL     OW13633   4.217   1.593   0.886
 4545SOL    HW113634   4.294   1.650   0.916
 4545SOL    HW213635   4.251   1.517   0.831
 4546SOL     OW13636   4.713   0.772   1.213
 4546SOL    HW113637   4.761   0.774   1.300
 4546SOL    HW213638   4.629   0.718   1.223
 4547SOL     OW13639   3.733   0.530   1.122
 4547SOL    HW113640   3.814   0.512   1.066
 4547SOL    HW213641   3.757   0.521   1.219
 4548SOL     OW13642   3.944   0.504   1.720
 4548SOL    HW113643   3.966   0.447   1.641
 4548SOL    HW213644   3.908   0.592   1.689
 4549SOL     OW13645   5.102   0.926   1.643
 4549SOL    HW113646   5.126   1.023   1.644
 4549SOL    HW213647   5.088   0.897   1.549
 4550SOL     OW13648   4.548   0.573   0.327
 4550SOL    HW113649   4.527   0.498   0.265
 4550SOL    HW213650   4.471   0.636   0.330
 4551SOL     OW13651   5.362   0.559   1.181
 4551SOL    HW113652   5.350   0.492   1.254
 4551SOL    HW213653   5.451   0.546   1.138
 4552SOL     OW13654   3.962   1.525   1.726
 4552SOL    HW113655   3.961   1.601   1.791
 4552SOL    HW213656   3.950   1.439   1.775
 4553SOL     OW13657   4.451   0.482   1.255
 4553SOL    HW113658   4.377   0.414   1.248
 4553SOL    HW213659   4.449   0.542   1.175
 4554SOL     OW13660   4.630   1.658   1.484
 4554SOL    HW113661   4.629   1.606   1.398
 4554SOL    HW213662   4.620   1.755   1.465
 4555SOL     OW13663   4.217   0.506   0.220
 4555SOL    HW113664   4.269   0.585   0.253
 4555SOL    HW213665   4.119   0.525   0.226
 4556SOL     OW13666   3.918   1.140   1.464
 4556SOL    HW113667   3.892   1.099   1.552
 4556SOL    HW213668   3.914   1.071   1.392
 4557SOL     OW13669   5.033   1.059   1.218
 4557SOL    HW113670   5.065   1.001   1.144
 4557SOL    HW213671   4.934   1.070   1.212
 4558SOL     OW13672   5.057   0.849   0.329
 4558SOL    HW113673   4.960   0.852   0.353
 4558SOL    HW213674   5.073   0.776   0.262
 4559SOL     OW13675   5.532   1.702   1.156
 4559SOL    HW113676   5.598   1.733   1.087
 4559SOL    HW213677   5.482   1.624   1.121
 4560SOL     OW13678   4.941   1.703   1.140
 4560SOL    HW113679   5.012   1.768   1.112
 4560SOL    HW213680   4.976   1.610   1.131
 4561SOL     OW13681   3.829   1.277   1.042
 4561SOL    HW113682   3.813   1.270   1.140
 4561SOL    HW213683   3.757   1.228   0.993
 4562SOL     OW13684   4.441   1.684   1.730
 4562SOL    HW113685   4.345   1.709   1.721
 4562SOL    HW213686   4.483   1.678   1.639
 4563SOL     OW13687   4.636   0.003   0.130
 4563SOL    HW113688   4.661   0.079   0.069
 4563SOL    HW213689   4.714   5.981   0.188
 4564SOL     OW13690   5.461   0.163   0.528
 4564SOL    HW113691   5.530   0.130   0.464
 4564SOL    HW213692   5.412   0.085   0.567
 4565SOL     OW13693   5.081   1.597   0.446
 4565SOL    HW113694   5.164   1.608   0.391
 4565SOL    HW213695   5.054   1.685   0.483
 4566SOL     OW13696   3.873   1.798   1.836
 4566SOL    HW113697   3.793   1.743   1.857
 4566SOL    HW213698   3.905   1.843   1.920
 4567SOL     OW13699   5.004   0.901   0.648
 4567SOL    HW113700   5.080   0.842   0.675
 4567SOL    HW213701   5.038   0.977   0.593
 4568SOL     OW13702   4.505   1.246   1.402
 4568SOL    HW113703   4.480   1.312   1.473
 4568SOL    HW213704   4.443   1.255   1.324
 4569SOL     OW13705   4.408   1.602   0.156
 4569SOL    HW113706   4.427   1.573   0.063
 4569SOL    HW213707   4.350   1.534   0.201
 4570SOL     OW13708   5.368   1.727   1.373
 4570SOL    HW113709   5.424   1.730   1.290
 4570SOL    HW213710   5.348   1.821   1.403
 4571SOL     OW13711   5.608   0.123   0.951
 4571SOL    HW113712   5.634   0.058   0.880
 4571SOL    HW213713   5.514   0.155   0.935
 4572SOL     OW13714   3.997   0.269   0.698
 4572SOL    HW113715   3.907   0.300   0.666
 4572SOL    HW213716   4.005   0.286   0.796
 4573SOL     OW13717   4.964   1.587   0.027
 4573SOL    HW113718   4.924   1.504   0.064
 4573SOL    HW213719   4.916   1.613   5.943
 4574SOL     OW13720   4.579   1.001   1.360
 4574SOL    HW113721   4.623   1.003   1.271
 4574SOL    HW213722   4.544   1.093   1.382
 4575SOL     OW13723   4.622   0.893   0.273
 4575SOL    HW113724   4.694   0.928   0.214
 4575SOL    HW213725   4.645   0.801   0.305
 4576SOL     OW13726   5.223   1.620   0.047
 4576SOL    HW113727   5.125   1.605   0.057
 4576SOL    HW213728   5.244   1.644   5.952
 4577SOL     OW13729   4.085   1.326   1.527
 4577SOL    HW113730   4.063   1.408   1.474
 4577SOL    HW213731   4.020   1.254   1.504
 4578SOL     OW13732   5.338   1.281   1.294
 4578SOL    HW113733   5.392   1.261   1.376
 4578SOL    HW213734   5.274   1.355   1.313
 4579SOL     OW13735   4.743   1.143   0.742
 4579SOL    HW113736   4.687   1.069   0.780
 4579SOL    HW213737   4.791   1.109   0.661
 4580SOL     OW13738   4.788   0.175   0.957
 4580SOL    HW113739   4.782   0.135   0.865
 4580SOL    HW213740   4.703   0.156   1.006
 4581SOL     OW13741   4.352   1.472   0.442
 4581SOL    HW113742   4.408   1.418   0.380
 4581SOL    HW213743   4.270   1.504   0.395
 4582SOL     OW13744   5.430   0.367   1.400
 4582SOL    HW113745   5.487   0.449   1.408
 4582SOL    HW213746   5.473   0.302   1.337
 4583SOL     OW13747   3.943   1.348   0.304
 4583SOL    HW113748   3.859   1.293   0.306
 4583SOL    HW213749   3.962   1.383   0.396
 4584SOL     OW13750   3.849   1.069   1.708
 4584SOL    HW113751   3.769   1.028   1.751
 4584SOL    HW213752   3.931   1.019   1.736
 4585SOL     OW13753   4.409   0.230   1.452
 4585SOL    HW113754   4.494   0.195   1.411
 4585SOL    HW213755   4.422   0.241   1.550
 4586SOL     OW13756   3.828   0.412   0.037
 4586SOL    HW113757   3.791   0.321   0.019
 4586SOL    HW213758   3.827   0.466   5.952
 4587SOL     OW13759   5.163   0.852   1.382
 4587SOL    HW113760   5.112   0.916   1.325
 4587SOL    HW213761   5.261   0.865   1.367
 4588SOL     OW13762   3.801   0.173   0.339
 4588SOL    HW113763   3.797   0.273   0.330
 4588SOL    HW213764   3.870   0.138   0.276
 4589SOL     OW13765   4.856   1.367   0.134
 4589SOL    HW113766   4.789   1.293   0.137
 4589SOL    HW213767   4.920   1.358   0.211
 4590SOL     OW13768   4.344   0.826   1.436
 4590SOL    HW113769   4.394   0.911   1.420
 4590SOL    HW213770   4.409   0.753   1.457
 4591SOL     OW13771   5.209   1.780   0.988
 4591SOL    HW113772   5.193   1.860   0.930
 4591SOL    HW213773   5.307   1.762   0.993
 4592SOL     OW13774   4.453   0.552   1.707
 4592SOL    HW113775   4.484   0.621   1.772
 4592SOL    HW213776   4.473   0.461   1.742
 4593SOL     OW13777   5.199   1.211   1.628
 4593SOL    HW113778   5.182   1.210   1.726
 4593SOL    HW213779   5.292   1.242   1.610
 4594SOL     OW13780   4.098   1.713   1.546
 4594SOL    HW113781   4.012   1.764   1.534
 4594SOL    HW213782   4.078   1.624   1.587
 4595SOL     OW13783   5.413   0.836   1.236
 4595SOL    HW113784   5.390   0.755   1.182
 4595SOL    HW213785   5.399   0.918   1.180
 4596SOL     OW13786   4.982   0.335   0.449
 4596SOL    HW113787   5.023   0.244   0.449
 4596SOL    HW213788   4.988   0.374   0.541
 4597SOL     OW13789   4.260   0.733   0.674
 4597SOL    HW113790   4.309   0.821   0.668
 4597SOL    HW213791   4.200   0.723   0.595
 4598SOL     OW13792   5.470   0.351   1.662
 4598SOL    HW113793   5.461   0.346   1.562
 4598SOL    HW213794   5.391   0.308   1.705
 4599SOL     OW13795   5.461   0.948   1.467
 4599SOL    HW113796   5.489   1.042   1.450
 4599SOL    HW213797   5.453   0.900   1.379
 4600SOL     OW13798   4.551   1.416   5.996
 4600SOL    HW113799   4.573   1.374   0.083
 4600SOL    HW213800   4.616   1.490   5.977
 4601SOL     OW13801   4.400   1.796   0.945
 4601SOL    HW113802   4.354   1.885   0.943
 4601SOL    HW213803   4.491   1.805   0.904
 4602SOL     OW13804   4.591   0.947   0.885
 4602SOL    HW113805   4.667   0.890   0.916
 4602SOL    HW213806   4.562   1.007   0.960
 4603SOL     OW13807   4.824   1.005   0.086
 4603SOL    HW113808   4.759   0.982   0.014
 4603SOL    HW213809   4.910   0.956   0.071
 4604SOL     OW13810   5.538   1.587   0.836
 4604SOL    HW113811   5.462   1.544   0.785
 4604SOL    HW213812   5.566   1.526   0.911
 4605SOL     OW13813   3.919   1.264   1.882
 4605SOL    HW113814   3.884   1.181   1.838
 4605SOL    HW213815   3.909   1.256   1.981
 4606SOL     OW13816   3.844   1.233   0.654
 4606SOL    HW113817   3.854   1.190   0.743
 4606SOL    HW213818   3.909   1.194   0.590
 4607SOL     OW13819   4.442   1.402   1.605
 4607SOL    HW113820   4.356   1.373   1.647
 4607SOL    HW213821   4.487   1.470   1.663
 4608SOL     OW13822   5.550   0.206   1.235
 4608SOL    HW113823   5.581   0.133   1.296
 4608SOL    HW213824   5.579   0.185   1.141
 4609SOL     OW13825   4.127   0.416   0.516
 4609SOL    HW113826   4.176   0.356   0.453
 4609SOL    HW213827   4.082   0.361   0.586
 4610SOL     OW13828   5.421   1.462   1.101
 4610SOL    HW113829   5.346   1.452   1.035
 4610SOL    HW213830   5.413   1.392   1.171
 4611SOL     OW13831   4.040   0.552   1.271
 4611SOL    HW113832   4.104   0.505   1.332
 4611SOL    HW213833   4.060   0.529   1.176
 4612SOL     OW13834   4.533   1.565   0.688
 4612SOL    HW113835   4.534   1.612   0.601
 4612SOL    HW213836   4.447   1.515   0.699
 4613SOL     OW13837   5.191   0.279   1.155
 4613SOL    HW113838   5.252   0.227   1.215
 4613SOL    HW213839   5.132   0.337   1.211
 4614SOL     OW13840   4.731   5.955   1.192
 4614SOL    HW113841   4.654   5.946   1.128
 4614SOL    HW213842   4.813   5.979   1.141
 4615SOL     OW13843   4.530   1.302   0.305
 4615SOL    HW113844   4.465   1.236   0.343
 4615SOL    HW213845   4.596   1.328   0.375
 4616SOL     OW13846   4.358   1.553   1.275
 4616SOL    HW113847   4.351   1.632   1.336
 4616SOL    HW213848   4.443   1.558   1.223
 4617SOL     OW13849   5.019   0.037   0.188
 4617SOL    HW113850   5.088   5.976   0.150
 4617SOL    HW213851   4.976   5.994   0.267
 4618SOL     OW13852   4.989   0.447   0.687
 4618SOL    HW113853   4.946   0.537   0.683
 4618SOL    HW213854   5.029   0.434   0.778
 4619SOL     OW13855   5.370   0.224   0.892
 4619SOL    HW113856   5.314   0.224   0.975
 4619SOL    HW213857   5.342   0.300   0.834
 4620SOL     OW13858   3.765   1.150   0.320
 4620SOL    HW113859   3.838   1.106   0.267
 4620SOL    HW213860   3.734   1.088   0.392
 4621SOL     OW13861   4.621   1.669   0.352
 4621SOL    HW113862   4.552   1.659   0.281
 4621SOL    HW213863   4.599   1.749   0.409
 4622SOL     OW13864   3.969   0.671   2.000
 4622SOL    HW113865   3.884   0.661   2.052
 4622SOL    HW213866   3.961   0.621   1.914
 4623SOL     OW13867   3.955   0.276   2.851
 4623SOL    HW113868   4.005   0.211   2.908
 4623SOL    HW213869   3.861   0.245   2.840
 4624SOL     OW13870   3.723   0.346   2.512
 4624SOL    HW113871   3.630   0.356   2.548
 4624SOL    HW213872   3.719   0.311   2.419
 4625SOL     OW13873   4.259   1.268   3.045
 4625SOL    HW113874   4.194   1.285   2.971
 4625SOL    HW213875   4.268   1.350   3.101
 4626SOL     OW13876   5.279   1.514   2.564
 4626SOL    HW113877   5.236   1.491   2.652
 4626SOL    HW213878   5.207   1.531   2.496
 4627SOL     OW13879   4.842   0.677   2.504
 4627SOL    HW113880   4.885   0.765   2.523
 4627SOL    HW213881   4.774   0.656   2.574
 4628SOL     OW13882   5.426   0.617   2.084
 4628SOL    HW113883   5.442   0.609   1.986
 4628SOL    HW213884   5.391   0.531   2.120
 4629SOL     OW13885   4.469   1.156   2.916
 4629SOL    HW113886   4.384   1.181   2.962
 4629SOL    HW213887   4.506   1.236   2.868
 4630SOL     OW13888   4.576   0.803   3.664
 4630SOL    HW113889   4.557   0.895   3.700
 4630SOL    HW213890   4.612   0.811   3.572
 4631SOL     OW13891   4.390   0.990   2.560
 4631SOL    HW113892   4.463   0.984   2.628
 4631SOL    HW213893   4.323   1.059   2.590
 4632SOL     OW13894   4.420   1.153   3.668
 4632SOL    HW113895   4.471   1.238   3.677
 4632SOL    HW213896   4.324   1.173   3.650
 4633SOL     OW13897   4.071   1.430   2.896
 4633SOL    HW113898   3.980   1.411   2.859
 4633SOL    HW213899   4.116   1.500   2.841
 4634SOL     OW13900   5.201   1.518   3.200
 4634SOL    HW113901   5.261   1.598   3.210
 4634SOL    HW213902   5.134   1.518   3.274
 4635SOL     OW13903   4.175   0.439   3.322
 4635SOL    HW113904   4.249   0.372   3.313
 4635SOL    HW213905   4.093   0.394   3.359
 4636SOL     OW13906   5.309   0.444   2.596
 4636SOL    HW113907   5.239   0.482   2.535
 4636SOL    HW213908   5.353   0.518   2.647
 4637SOL     OW13909   3.958   1.704   2.368
 4637SOL    HW113910   3.991   1.794   2.397
 4637SOL    HW213911   4.004   1.678   2.283
 4638SOL     OW13912   4.833   1.333   3.557
 4638SOL    HW113913   4.882   1.345   3.643
 4638SOL    HW213914   4.776   1.251   3.561
 4639SOL     OW13915   3.987   1.424   2.405
 4639SOL    HW113916   3.956   1.518   2.416
 4639SOL    HW213917   3.919   1.362   2.444
 4640SOL     OW13918   3.959   1.096   2.733
 4640SOL    HW113919   3.963   1.002   2.767
 4640SOL    HW213920   3.921   1.155   2.803
 4641SOL     OW13921   4.347   1.762   3.314
 4641SOL    HW113922   4.254   1.742   3.345
 4641SOL    HW213923   4.368   1.859   3.332
 4642SOL     OW13924   4.322   0.951   2.024
 4642SOL    HW113925   4.336   1.013   1.946
 4642SOL    HW213926   4.381   0.980   2.100
 4643SOL     OW13927   5.398   0.099   3.348
 4643SOL    HW113928   5.334   0.140   3.284
 4643SOL    HW213929   5.392   0.145   3.437
 4644SOL     OW13930   3.820   0.618   2.433
 4644SOL    HW113931   3.791   0.531   2.473
 4644SOL    HW213932   3.818   0.690   2.503
 4645SOL     OW13933   5.567   1.735   2.189
 4645SOL    HW113934   5.641   1.690   2.240
 4645SOL    HW213935   5.581   1.834   2.191
 4646SOL     OW13936   3.711   1.614   1.971
 4646SOL    HW113937   3.714   1.516   1.992
 4646SOL    HW213938   3.726   1.666   2.055
 4647SOL     OW13939   5.388   0.925   2.521
 4647SOL    HW113940   5.457   0.865   2.480
 4647SOL    HW213941   5.355   0.989   2.451
 4648SOL     OW13942   5.361   1.160   2.331
 4648SOL    HW113943   5.445   1.125   2.289
 4648SOL    HW213944   5.381   1.193   2.423
 4649SOL     OW13945   3.859   0.731   3.456
 4649SOL    HW113946   3.958   0.730   3.445
 4649SOL    HW213947   3.825   0.823   3.439
 4650SOL     OW13948   4.318   1.392   2.580
 4650SOL    HW113949   4.264   1.308   2.589
 4650SOL    HW213950   4.315   1.423   2.485
 4651SOL     OW13951   5.025   1.234   3.305
 4651SOL    HW113952   5.050   1.176   3.227
 4651SOL    HW213953   5.094   1.223   3.377
 4652SOL     OW13954   4.524   0.038   2.446
 4652SOL    HW113955   4.576   0.117   2.412
 4652SOL    HW213956   4.429   0.044   2.414
 4653SOL     OW13957   3.915   0.956   3.148
 4653SOL    HW113958   3.998   0.915   3.111
 4653SOL    HW213959   3.837   0.926   3.093
 4654SOL     OW13960   5.261   0.974   2.048
 4654SOL    HW113961   5.188   0.931   2.101
 4654SOL    HW213962   5.321   1.024   2.110
 4655SOL     OW13963   4.926   1.812   3.477
 4655SOL    HW113964   4.897   1.863   3.396
 4655SOL    HW213965   4.944   1.716   3.452
 4656SOL     OW13966   4.013   0.208   3.696
 4656SOL    HW113967   4.083   0.279   3.700
 4656SOL    HW213968   3.922   0.250   3.703
 4657SOL     OW13969   5.192   1.418   2.791
 4657SOL    HW113970   5.131   1.432   2.870
 4657SOL    HW213971   5.202   1.320   2.774
 4658SOL     OW13972   5.376   1.751   2.450
 4658SOL    HW113973   5.343   1.730   2.358
 4658SOL    HW213974   5.371   1.669   2.507
 4659SOL     OW13975   4.329   0.699   2.139
 4659SOL    HW113976   4.334   0.785   2.088
 4659SOL    HW213977   4.260   0.707   2.211
 4660SOL     OW13978   5.035   0.362   2.809
 4660SOL    HW113979   4.939   0.337   2.819
 4660SOL    HW213980   5.091   0.304   2.867
 4661SOL     OW13981   5.309   1.675   2.189
 4661SOL    HW113982   5.407   1.695   2.198
 4661SOL    HW213983   5.287   1.662   2.093
 4662SOL     OW13984   4.524   0.628   3.326
 4662SOL    HW113985   4.494   0.590   3.413
 4662SOL    HW213986   4.494   0.567   3.252
 4663SOL     OW13987   5.116   0.516   3.551
 4663SOL    HW113988   5.091   0.549   3.643
 4663SOL    HW213989   5.188   0.448   3.559
 4664SOL     OW13990   4.701   0.880   3.429
 4664SOL    HW113991   4.757   0.806   3.393
 4664SOL    HW213992   4.648   0.921   3.355
 4665SOL     OW13993   4.725   0.399   3.086
 4665SOL    HW113994   4.638   0.420   3.131
 4665SOL    HW213995   4.710   0.332   3.013
 4666SOL     OW13996   4.780   0.684   2.226
 4666SOL    HW113997   4.798   0.693   2.324
 4666SOL    HW213998   4.694   0.636   2.212
 4667SOL     OW13999   3.820   0.814   2.623
 4667SOL    HW114000   3.898   0.790   2.680
 4667SOL    HW214001   3.762   0.880   2.672
 4668SOL     OW14002   3.861   1.817   3.436
 4668SOL    HW114003   3.860   1.802   3.534
 4668SOL    HW214004   3.801   1.894   3.413
 4669SOL     OW14005   4.591   0.367   2.001
 4669SOL    HW114006   4.659   0.398   1.934
 4669SOL    HW214007   4.629   0.291   2.054
 4670SOL     OW14008   5.442   0.594   3.685
 4670SOL    HW114009   5.412   0.682   3.650
 4670SOL    HW214010   5.452   0.530   3.609
 4671SOL     OW14011   5.101   1.162   2.418
 4671SOL    HW114012   5.184   1.157   2.363
 4671SOL    HW214013   5.029   1.206   2.364
 4672SOL     OW14014   4.259   0.223   2.752
 4672SOL    HW114015   4.278   0.220   2.850
 4672SOL    HW214016   4.270   0.316   2.719
 4673SOL     OW14017   4.751   1.483   2.317
 4673SOL    HW114018   4.685   1.536   2.265
 4673SOL    HW214019   4.784   1.537   2.395
 4674SOL     OW14020   4.068   1.797   2.704
 4674SOL    HW114021   4.124   1.715   2.714
 4674SOL    HW214022   4.121   1.877   2.732
 4675SOL     OW14023   5.537   1.065   2.757
 4675SOL    HW114024   5.466   1.065   2.687
 4675SOL    HW214025   5.495   1.062   2.848
 4676SOL     OW14026   4.987   1.533   3.396
 4676SOL    HW114027   4.997   1.437   3.421
 4676SOL    HW214028   4.893   1.551   3.369
 4677SOL     OW14029   4.035   0.972   2.084
 4677SOL    HW114030   4.135   0.969   2.092
 4677SOL    HW214031   4.000   0.879   2.072
 4678SOL     OW14032   5.181   0.740   2.595
 4678SOL    HW114033   5.174   0.683   2.677
 4678SOL    HW214034   5.271   0.783   2.591
 4679SOL     OW14035   4.174   1.285   3.639
 4679SOL    HW114036   4.159   1.295   3.540
 4679SOL    HW214037   4.087   1.267   3.684
 4680SOL     OW14038   4.897   1.757   2.088
 4680SOL    HW114039   4.810   1.726   2.126
 4680SOL    HW214040   4.914   1.712   2.000
 4681SOL     OW14041   3.938   0.306   3.382
 4681SOL    HW114042   3.860   0.329   3.325
 4681SOL    HW214043   3.906   0.265   3.468
 4682SOL     OW14044   5.335   1.361   1.986
 4682SOL    HW114045   5.311   1.455   1.959
 4682SOL    HW214046   5.269   1.297   1.946
 4683SOL     OW14047   4.196   1.732   2.192
 4683SOL    HW114048   4.235   1.803   2.251
 4683SOL    HW214049   4.267   1.696   2.132
 4684SOL     OW14050   5.102   0.104   2.271
 4684SOL    HW114051   5.103   0.100   2.171
 4684SOL    HW214052   5.184   0.151   2.304
 4685SOL     OW14053   4.002   1.810   3.047
 4685SOL    HW114054   4.013   1.726   3.101
 4685SOL    HW214055   3.985   1.787   2.952
 4686SOL     OW14056   4.659   1.715   2.766
 4686SOL    HW114057   4.711   1.652   2.823
 4686SOL    HW214058   4.615   1.665   2.692
 4687SOL     OW14059   4.113   0.684   2.324
 4687SOL    HW114060   4.121   0.587   2.343
 4687SOL    HW214061   4.018   0.714   2.338
 4688SOL     OW14062   5.258   0.216   3.624
 4688SOL    HW114063   5.249   0.264   3.712
 4688SOL    HW214064   5.184   0.150   3.614
 4689SOL     OW14065   4.338   0.112   1.928
 4689SOL    HW114066   4.433   0.082   1.935
 4689SOL    HW214067   4.294   0.066   1.851
 4690SOL     OW14068   4.488   0.263   3.620
 4690SOL    HW114069   4.580   0.223   3.621
 4690SOL    HW214070   4.454   0.272   3.714
 4691SOL     OW14071   4.638   1.535   3.052
 4691SOL    HW114072   4.594   1.495   2.972
 4691SOL    HW214073   4.711   1.475   3.084
 4692SOL     OW14074   5.065   0.596   3.306
 4692SOL    HW114075   5.098   0.573   3.398
 4692SOL    HW214076   5.100   0.686   3.280
 4693SOL     OW14077   4.498   1.394   2.782
 4693SOL    HW114078   4.587   1.420   2.745
 4693SOL    HW214079   4.436   1.372   2.708
 4694SOL     OW14080   4.659   0.496   2.764
 4694SOL    HW114081   4.606   0.474   2.682
 4694SOL    HW214082   4.698   0.412   2.802
 4695SOL     OW14083   4.284   0.074   2.333
 4695SOL    HW114084   4.202   0.065   2.389
 4695SOL    HW214085   4.277   0.156   2.276
 4696SOL     OW14086   5.150   1.184   1.882
 4696SOL    HW114087   5.181   1.096   1.916
 4696SOL    HW214088   5.082   1.223   1.944
 4697SOL     OW14089   4.015   0.046   2.054
 4697SOL    HW114090   4.058   0.098   1.980
 4697SOL    HW214091   4.085   5.990   2.099
 4698SOL     OW14092   4.690   0.279   2.338
 4698SOL    HW114093   4.644   0.240   2.259
 4698SOL    HW214094   4.787   0.292   2.318
 4699SOL     OW14095   4.813   0.672   3.316
 4699SOL    HW114096   4.741   0.604   3.322
 4699SOL    HW214097   4.902   0.627   3.307
 4700SOL     OW14098   4.927   1.559   2.659
 4700SOL    HW114099   4.958   1.594   2.571
 4700SOL    HW214100   5.001   1.565   2.726
 4701SOL     OW14101   4.181   1.167   2.613
 4701SOL    HW114102   4.101   1.142   2.668
 4701SOL    HW214103   4.161   1.156   2.516
 4702SOL     OW14104   5.024   1.791   2.439
 4702SOL    HW114105   5.045   1.860   2.370
 4702SOL    HW214106   4.979   1.834   2.517
 4703SOL     OW14107   4.748   0.555   1.809
 4703SOL    HW114108   4.695   0.640   1.809
 4703SOL    HW214109   4.806   0.552   1.891
 4704SOL     OW14110   3.799   0.554   3.272
 4704SOL    HW114111   3.884   0.536   3.223
 4704SOL    HW214112   3.813   0.629   3.336
 4705SOL     OW14113   4.271   0.276   3.061
 4705SOL    HW114114   4.317   0.223   3.132
 4705SOL    HW214115   4.173   0.253   3.060
 4706SOL     OW14116   4.568   0.419   2.520
 4706SOL    HW114117   4.518   0.477   2.456
 4706SOL    HW214118   4.631   0.360   2.469
 4707SOL     OW14119   4.736   0.042   2.604
 4707SOL    HW114120   4.661   0.040   2.538
 4707SOL    HW214121   4.736   5.958   2.658
 4708SOL     OW14122   5.162   1.128   2.746
 4708SOL    HW114123   5.082   1.084   2.787
 4708SOL    HW214124   5.156   1.122   2.647
 4709SOL     OW14125   5.200   0.593   2.820
 4709SOL    HW114126   5.150   0.506   2.816
 4709SOL    HW214127   5.266   0.590   2.895
 4710SOL     OW14128   5.568   0.797   2.225
 4710SOL    HW114129   5.637   0.754   2.283
 4710SOL    HW214130   5.524   0.726   2.168
 4711SOL     OW14131   4.217   1.407   2.056
 4711SOL    HW114132   4.129   1.376   2.093
 4711SOL    HW214133   4.220   1.387   1.958
 4712SOL     OW14134   5.424   1.288   2.567
 4712SOL    HW114135   5.510   1.297   2.517
 4712SOL    HW214136   5.367   1.368   2.550
 4713SOL     OW14137   5.084   0.585   1.939
 4713SOL    HW114138   5.029   0.532   2.003
 4713SOL    HW214139   5.181   0.579   1.965
 4714SOL     OW14140   4.285   0.268   2.155
 4714SOL    HW114141   4.296   0.211   2.073
 4714SOL    HW214142   4.251   0.359   2.128
 4715SOL     OW14143   5.464   1.281   3.440
 4715SOL    HW114144   5.542   1.221   3.421
 4715SOL    HW214145   5.497   1.365   3.484
 4716SOL     OW14146   4.782   1.334   3.225
 4716SOL    HW114147   4.689   1.317   3.258
 4716SOL    HW214148   4.848   1.296   3.290
 4717SOL     OW14149   5.336   1.659   3.514
 4717SOL    HW114150   5.327   1.674   3.415
 4717SOL    HW214151   5.414   1.599   3.532
 4718SOL     OW14152   4.767   1.179   2.987
 4718SOL    HW114153   4.785   1.240   3.064
 4718SOL    HW214154   4.757   1.233   2.903
 4719SOL     OW14155   5.353   1.084   2.957
 4719SOL    HW114156   5.348   1.163   3.018
 4719SOL    HW214157   5.284   1.094   2.885
 4720SOL     OW14158   4.656   0.153   3.224
 4720SOL    HW114159   4.684   0.078   3.164
 4720SOL    HW214160   4.728   0.168   3.293
 4721SOL     OW14161   4.692   1.101   3.577
 4721SOL    HW114162   4.594   1.107   3.596
 4721SOL    HW214163   4.709   1.029   3.510
 4722SOL     OW14164   4.454   1.076   2.276
 4722SOL    HW114165   4.429   1.050   2.369
 4722SOL    HW214166   4.529   1.017   2.244
 4723SOL     OW14167   4.139   0.804   3.115
 4723SOL    HW114168   4.214   0.815   3.181
 4723SOL    HW214169   4.094   0.716   3.130
 4724SOL     OW14170   4.999   0.395   3.153
 4724SOL    HW114171   5.028   0.477   3.202
 4724SOL    HW214172   4.912   0.412   3.108
 4725SOL     OW14173   3.791   1.547   3.217
 4725SOL    HW114174   3.742   1.609   3.157
 4725SOL    HW214175   3.888   1.574   3.221
 4726SOL     OW14176   4.111   1.136   2.351
 4726SOL    HW114177   4.085   1.212   2.291
 4726SOL    HW214178   4.144   1.060   2.296
 4727SOL     OW14179   4.304   0.529   2.724
 4727SOL    HW114180   4.303   0.596   2.649
 4727SOL    HW214181   4.368   0.560   2.794
 4728SOL     OW14182   4.989   1.347   2.231
 4728SOL    HW114183   5.042   1.416   2.281
 4728SOL    HW214184   4.892   1.359   2.251
 4729SOL     OW14185   5.043   1.444   3.005
 4729SOL    HW114186   5.099   1.469   3.084
 4729SOL    HW214187   4.979   1.372   3.031
 4730SOL     OW14188   5.343   0.643   2.378
 4730SOL    HW114189   5.259   0.687   2.408
 4730SOL    HW214190   5.369   0.678   2.287
 4731SOL     OW14191   4.065   1.540   3.151
 4731SOL    HW114192   4.067   1.492   3.063
 4731SOL    HW214193   4.159   1.561   3.179
 4732SOL     OW14194   4.121   0.727   3.440
 4732SOL    HW114195   4.171   0.786   3.377
 4732SOL    HW214196   4.183   0.662   3.483
 4733SOL     OW14197   5.361   0.799   3.526
 4733SOL    HW114198   5.261   0.798   3.526
 4733SOL    HW214199   5.394   0.851   3.448
 4734SOL     OW14200   4.727   0.138   3.624
 4734SOL    HW114201   4.799   0.191   3.578
 4734SOL    HW214202   4.699   0.062   3.565
 4735SOL     OW14203   4.186   0.001   3.608
 4735SOL    HW114204   4.198   0.003   3.509
 4735SOL    HW214205   4.146   0.088   3.638
 4736SOL     OW14206   4.268   0.863   2.875
 4736SOL    HW114207   4.323   0.947   2.882
 4736SOL    HW214208   4.228   0.842   2.964
 4737SOL     OW14209   5.054   0.844   2.899
 4737SOL    HW114210   4.961   0.843   2.863
 4737SOL    HW214211   5.100   0.759   2.876
 4738SOL     OW14212   4.925   0.471   2.118
 4738SOL    HW114213   4.951   0.408   2.192
 4738SOL    HW214214   4.883   0.552   2.157
 4739SOL     OW14215   4.013   0.193   3.131
 4739SOL    HW114216   4.002   0.205   3.230
 4739SOL    HW214217   4.022   0.095   3.111
 4740SOL     OW14218   3.800   1.288   3.150
 4740SOL    HW114219   3.843   1.237   3.225
 4740SOL    HW214220   3.794   1.384   3.174
 4741SOL     OW14221   4.484   0.657   2.915
 4741SOL    HW114222   4.557   0.615   2.861
 4741SOL    HW214223   4.460   0.745   2.875
 4742SOL     OW14224   5.487   0.967   3.689
 4742SOL    HW114225   5.439   0.901   3.631
 4742SOL    HW214226   5.444   0.968   3.779
 4743SOL     OW14227   4.057   0.052   2.472
 4743SOL    HW114228   4.026   0.140   2.509
 4743SOL    HW214229   3.992   5.981   2.496
 4744SOL     OW14230   5.308   0.401   2.241
 4744SOL    HW114231   5.367   0.323   2.265
 4744SOL    HW214232   5.309   0.467   2.316
 4745SOL     OW14233   4.772   0.778   2.819
 4745SOL    HW114234   4.765   0.790   2.918
 4745SOL    HW214235   4.735   0.689   2.793
 4746SOL     OW14236   4.718   1.573   3.582
 4746SOL    HW114237   4.676   1.615   3.501
 4746SOL    HW214238   4.753   1.482   3.558
 4747SOL     OW14239   5.594   1.513   3.498
 4747SOL    HW114240   5.608   1.505   3.399
 4747SOL    HW214241   5.680   1.541   3.541
 4748SOL     OW14242   4.079   0.945   3.631
 4748SOL    HW114243   4.116   0.937   3.723
 4748SOL    HW214244   4.096   0.860   3.581
 4749SOL     OW14245   5.203   0.319   2.007
 4749SOL    HW114246   5.190   0.220   2.010
 4749SOL    HW214247   5.240   0.350   2.094
 4750SOL     OW14248   5.018   0.843   1.908
 4750SOL    HW114249   5.037   0.744   1.910
 4750SOL    HW214250   5.045   0.879   1.819
 4751SOL     OW14251   4.782   1.363   2.768
 4751SOL    HW114252   4.780   1.287   2.702
 4751SOL    HW214253   4.834   1.439   2.729
 4752SOL     OW14254   4.018   0.768   2.816
 4752SOL    HW114255   4.110   0.805   2.800
 4752SOL    HW214256   4.024   0.673   2.845
 4753SOL     OW14257   4.068   0.507   2.863
 4753SOL    HW114258   4.026   0.416   2.863
 4753SOL    HW214259   4.143   0.509   2.798
 4754SOL     OW14260   4.904   0.360   3.557
 4754SOL    HW114261   4.830   0.414   3.595
 4754SOL    HW214262   4.984   0.418   3.541
 4755SOL     OW14263   4.887   0.187   3.369
 4755SOL    HW114264   4.896   0.262   3.435
 4755SOL    HW214265   4.898   0.223   3.277
 4756SOL     OW14266   3.694   1.343   2.080
 4756SOL    HW114267   3.598   1.353   2.053
 4756SOL    HW214268   3.712   1.248   2.104
 4757SOL     OW14269   3.821   1.778   2.802
 4757SOL    HW114270   3.773   1.700   2.762
 4757SOL    HW214271   3.908   1.791   2.756
 4758SOL     OW14272   4.224   1.591   2.757
 4758SOL    HW114273   4.304   1.647   2.779
 4758SOL    HW214274   4.252   1.514   2.700
 4759SOL     OW14275   4.715   0.779   3.081
 4759SOL    HW114276   4.765   0.779   3.168
 4759SOL    HW214277   4.633   0.724   3.090
 4760SOL     OW14278   3.738   0.530   2.979
 4760SOL    HW114279   3.819   0.523   2.921
 4760SOL    HW214280   3.764   0.516   3.075
 4761SOL     OW14281   3.943   0.499   3.582
 4761SOL    HW114282   3.963   0.444   3.501
 4761SOL    HW214283   3.911   0.589   3.554
 4762SOL     OW14284   5.107   0.920   3.513
 4762SOL    HW114285   5.130   1.018   3.518
 4762SOL    HW214286   5.095   0.893   3.418
 4763SOL     OW14287   4.551   0.558   2.177
 4763SOL    HW114288   4.552   0.481   2.114
 4763SOL    HW214289   4.463   0.605   2.171
 4764SOL     OW14290   5.360   0.567   3.036
 4764SOL    HW114291   5.347   0.510   3.117
 4764SOL    HW214292   5.452   0.552   3.000
 4765SOL     OW14293   3.961   1.532   3.594
 4765SOL    HW114294   3.952   1.604   3.662
 4765SOL    HW214295   3.951   1.443   3.638
 4766SOL     OW14296   4.450   0.477   3.113
 4766SOL    HW114297   4.377   0.410   3.103
 4766SOL    HW214298   4.447   0.542   3.037
 4767SOL     OW14299   4.631   1.657   3.342
 4767SOL    HW114300   4.635   1.609   3.255
 4767SOL    HW214301   4.618   1.755   3.326
 4768SOL     OW14302   4.211   0.488   2.024
 4768SOL    HW114303   4.266   0.561   2.064
 4768SOL    HW214304   4.117   0.520   2.011
 4769SOL     OW14305   3.921   1.139   3.330
 4769SOL    HW114306   3.891   1.099   3.417
 4769SOL    HW214307   3.917   1.069   3.258
 4770SOL     OW14308   5.037   1.050   3.088
 4770SOL    HW114309   5.071   0.997   3.010
 4770SOL    HW214310   4.937   1.058   3.082
 4771SOL     OW14311   5.042   0.875   2.176
 4771SOL    HW114312   4.956   0.858   2.224
 4771SOL    HW214313   5.034   0.842   2.082
 4772SOL     OW14314   5.538   1.708   3.026
 4772SOL    HW114315   5.600   1.744   2.956
 4772SOL    HW214316   5.485   1.633   2.988
 4773SOL     OW14317   4.940   1.705   3.021
 4773SOL    HW114318   5.008   1.771   2.990
 4773SOL    HW214319   4.972   1.612   3.003
 4774SOL     OW14320   3.819   1.282   2.888
 4774SOL    HW114321   3.817   1.278   2.988
 4774SOL    HW214322   3.742   1.231   2.851
 4775SOL     OW14323   4.439   1.680   3.599
 4775SOL    HW114324   4.341   1.702   3.592
 4775SOL    HW214325   4.481   1.684   3.509
 4776SOL     OW14326   5.438   0.161   2.346
 4776SOL    HW114327   5.536   0.148   2.329
 4776SOL    HW214328   5.407   0.093   2.412
 4777SOL     OW14329   5.097   1.564   2.340
 4777SOL    HW114330   5.170   1.581   2.274
 4777SOL    HW214331   5.058   1.651   2.371
 4778SOL     OW14332   3.871   1.799   3.705
 4778SOL    HW114333   3.791   1.742   3.726
 4778SOL    HW214334   3.903   1.843   3.788
 4779SOL     OW14335   4.996   0.918   2.512
 4779SOL    HW114336   5.065   0.850   2.534
 4779SOL    HW214337   5.040   1.006   2.494
 4780SOL     OW14338   4.507   1.249   3.268
 4780SOL    HW114339   4.484   1.318   3.337
 4780SOL    HW214340   4.441   1.255   3.192
 4781SOL     OW14341   4.380   1.618   2.028
 4781SOL    HW114342   4.411   1.627   1.933
 4781SOL    HW214343   4.326   1.534   2.037
 4782SOL     OW14344   5.352   1.737   3.232
 4782SOL    HW114345   5.413   1.738   3.154
 4782SOL    HW214346   5.340   1.830   3.267
 4783SOL     OW14347   5.587   0.135   2.819
 4783SOL    HW114348   5.613   0.078   2.741
 4783SOL    HW214349   5.495   0.170   2.806
 4784SOL     OW14350   3.984   0.289   2.569
 4784SOL    HW114351   3.894   0.311   2.532
 4784SOL    HW214352   3.984   0.304   2.668
 4785SOL     OW14353   4.958   1.597   1.875
 4785SOL    HW114354   4.920   1.515   1.919
 4785SOL    HW214355   4.907   1.617   1.792
 4786SOL     OW14356   4.573   1.000   3.228
 4786SOL    HW114357   4.620   1.002   3.140
 4786SOL    HW214358   4.538   1.092   3.249
 4787SOL     OW14359   4.631   0.923   2.140
 4787SOL    HW114360   4.705   0.964   2.087
 4787SOL    HW214361   4.638   0.823   2.137
 4788SOL     OW14362   5.244   1.628   1.931
 4788SOL    HW114363   5.145   1.618   1.943
 4788SOL    HW214364   5.264   1.648   1.835
 4789SOL     OW14365   4.090   1.324   3.388
 4789SOL    HW114366   4.071   1.402   3.328
 4789SOL    HW214367   4.025   1.251   3.369
 4790SOL     OW14368   5.335   1.278   3.166
 4790SOL    HW114369   5.402   1.261   3.238
 4790SOL    HW214370   5.265   1.342   3.199
 4791SOL     OW14371   4.725   1.144   2.606
 4791SOL    HW114372   4.673   1.069   2.645
 4791SOL    HW214373   4.780   1.111   2.529
 4792SOL     OW14374   4.778   0.179   2.835
 4792SOL    HW114375   4.785   0.143   2.742
 4792SOL    HW214376   4.695   0.145   2.878
 4793SOL     OW14377   4.350   1.478   2.309
 4793SOL    HW114378   4.392   1.415   2.244
 4793SOL    HW214379   4.272   1.523   2.266
 4794SOL     OW14380   5.443   0.380   3.263
 4794SOL    HW114381   5.514   0.450   3.264
 4794SOL    HW214382   5.469   0.308   3.198
 4795SOL     OW14383   3.955   1.344   2.149
 4795SOL    HW114384   3.863   1.365   2.115
 4795SOL    HW214385   3.967   1.384   2.239
 4796SOL     OW14386   3.846   1.064   3.569
 4796SOL    HW114387   3.765   1.024   3.612
 4796SOL    HW214388   3.928   1.015   3.599
 4797SOL     OW14389   4.412   0.227   3.310
 4797SOL    HW114390   4.497   0.194   3.270
 4797SOL    HW214391   4.428   0.256   3.404
 4798SOL     OW14392   3.786   0.344   1.890
 4798SOL    HW114393   3.688   0.349   1.910
 4798SOL    HW214394   3.813   0.425   1.837
 4799SOL     OW14395   5.162   0.848   3.251
 4799SOL    HW114396   5.102   0.908   3.198
 4799SOL    HW214397   5.257   0.863   3.225
 4800SOL     OW14398   3.811   0.178   2.210
 4800SOL    HW114399   3.743   0.216   2.148
 4800SOL    HW214400   3.883   0.133   2.157
 4801SOL     OW14401   4.912   1.345   1.974
 4801SOL    HW114402   4.857   1.262   1.969
 4801SOL    HW214403   4.950   1.354   2.066
 4802SOL     OW14404   4.342   0.823   3.297
 4802SOL    HW114405   4.392   0.908   3.282
 4802SOL    HW214406   4.407   0.750   3.320
 4803SOL     OW14407   5.214   1.776   2.854
 4803SOL    HW114408   5.196   1.860   2.802
 4803SOL    HW214409   5.309   1.747   2.838
 4804SOL     OW14410   4.453   0.551   3.570
 4804SOL    HW114411   4.473   0.618   3.642
 4804SOL    HW214412   4.475   0.460   3.603
 4805SOL     OW14413   5.198   1.219   3.493
 4805SOL    HW114414   5.181   1.220   3.592
 4805SOL    HW214415   5.293   1.246   3.475
 4806SOL     OW14416   4.098   1.718   3.407
 4806SOL    HW114417   4.012   1.769   3.401
 4806SOL    HW214418   4.080   1.624   3.436
 4807SOL     OW14419   5.409   0.855   3.089
 4807SOL    HW114420   5.388   0.773   3.036
 4807SOL    HW214421   5.392   0.936   3.033
 4808SOL     OW14422   4.949   0.313   2.325
 4808SOL    HW114423   4.995   0.224   2.324
 4808SOL    HW214424   4.968   0.358   2.412
 4809SOL     OW14425   4.274   0.732   2.536
 4809SOL    HW114426   4.317   0.822   2.534
 4809SOL    HW214427   4.213   0.723   2.457
 4810SOL     OW14428   5.466   0.355   3.531
 4810SOL    HW114429   5.454   0.350   3.432
 4810SOL    HW214430   5.394   0.304   3.577
 4811SOL     OW14431   5.464   0.948   3.324
 4811SOL    HW114432   5.491   1.044   3.312
 4811SOL    HW214433   5.451   0.905   3.235
 4812SOL     OW14434   4.571   1.395   1.868
 4812SOL    HW114435   4.566   1.390   1.968
 4812SOL    HW214436   4.632   1.469   1.841
 4813SOL     OW14437   4.397   1.798   2.808
 4813SOL    HW114438   4.354   1.889   2.804
 4813SOL    HW214439   4.493   1.806   2.783
 4814SOL     OW14440   4.587   0.956   2.746
 4814SOL    HW114441   4.661   0.892   2.767
 4814SOL    HW214442   4.564   1.008   2.828
 4815SOL     OW14443   4.809   1.020   1.951
 4815SOL    HW114444   4.775   1.051   1.862
 4815SOL    HW214445   4.880   0.952   1.938
 4816SOL     OW14446   5.564   1.573   2.717
 4816SOL    HW114447   5.473   1.548   2.682
 4816SOL    HW214448   5.596   1.501   2.779
 4817SOL     OW14449   3.917   1.267   3.738
 4817SOL    HW114450   3.884   1.182   3.696
 4817SOL    HW214451   3.908   1.260   3.837
 4818SOL     OW14452   3.839   1.215   2.481
 4818SOL    HW114453   3.842   1.186   2.576
 4818SOL    HW214454   3.914   1.172   2.431
 4819SOL     OW14455   4.452   1.409   3.470
 4819SOL    HW114456   4.365   1.379   3.509
 4819SOL    HW214457   4.495   1.476   3.531
 4820SOL     OW14458   5.532   0.206   3.090
 4820SOL    HW114459   5.566   0.135   3.151
 4820SOL    HW214460   5.560   0.186   2.996
 4821SOL     OW14461   4.121   0.424   2.380
 4821SOL    HW114462   4.171   0.352   2.331
 4821SOL    HW214463   4.067   0.382   2.454
 4822SOL     OW14464   5.412   1.466   2.971
 4822SOL    HW114465   5.340   1.454   2.903
 4822SOL    HW214466   5.392   1.410   3.051
 4823SOL     OW14467   4.035   0.555   3.126
 4823SOL    HW114468   4.096   0.506   3.188
 4823SOL    HW214469   4.057   0.531   3.032
 4824SOL     OW14470   4.543   1.571   2.553
 4824SOL    HW114471   4.553   1.582   2.454
 4824SOL    HW214472   4.451   1.537   2.573
 4825SOL     OW14473   5.196   0.272   3.009
 4825SOL    HW114474   5.258   0.224   3.072
 4825SOL    HW214475   5.130   0.325   3.062
 4826SOL     OW14476   4.726   5.955   3.047
 4826SOL    HW114477   4.652   5.943   2.982
 4826SOL    HW214478   4.809   5.983   2.999
 4827SOL     OW14479   4.535   1.310   2.189
 4827SOL    HW114480   4.484   1.229   2.219
 4827SOL    HW214481   4.600   1.337   2.261
 4828SOL     OW14482   4.354   1.554   3.141
 4828SOL    HW114483   4.347   1.633   3.202
 4828SOL    HW214484   4.448   1.545   3.107
 4829SOL     OW14485   5.103   0.054   2.006
 4829SOL    HW114486   5.129   0.002   1.925
 4829SOL    HW214487   5.021   0.014   2.048
 4830SOL     OW14488   4.992   0.455   2.552
 4830SOL    HW114489   4.952   0.547   2.544
 4830SOL    HW214490   5.021   0.439   2.646
 4831SOL     OW14491   5.348   0.235   2.767
 4831SOL    HW114492   5.304   0.243   2.856
 4831SOL    HW214493   5.317   0.309   2.707
 4832SOL     OW14494   3.750   1.086   2.148
 4832SOL    HW114495   3.850   1.087   2.151
 4832SOL    HW214496   3.719   0.991   2.144
 4833SOL     OW14497   4.610   1.643   2.157
 4833SOL    HW114498   4.522   1.624   2.113
 4833SOL    HW214499   4.599   1.720   2.220
 4834SOL     OW14500   3.968   0.674   3.861
 4834SOL    HW114501   3.883   0.666   3.913
 4834SOL    HW214502   3.960   0.620   3.777
 4835SOL     OW14503   3.959   0.270   4.703
 4835SOL    HW114504   4.010   0.207   4.762
 4835SOL    HW214505   3.864   0.242   4.699
 4836SOL     OW14506   3.722   0.352   4.373
 4836SOL    HW114507   3.629   0.363   4.408
 4836SOL    HW214508   3.719   0.312   4.282
 4837SOL     OW14509   4.256   1.271   4.906
 4837SOL    HW114510   4.187   1.289   4.836
 4837SOL    HW214511   4.271   1.354   4.960
 4838SOL     OW14512   5.274   1.516   4.430
 4838SOL    HW114513   5.237   1.492   4.520
 4838SOL    HW214514   5.200   1.540   4.368
 4839SOL     OW14515   4.845   0.682   4.366
 4839SOL    HW114516   4.887   0.772   4.379
 4839SOL    HW214517   4.783   0.663   4.441
 4840SOL     OW14518   5.424   0.615   3.948
 4840SOL    HW114519   5.439   0.605   3.850
 4840SOL    HW214520   5.389   0.529   3.985
 4841SOL     OW14521   4.466   1.156   4.778
 4841SOL    HW114522   4.380   1.183   4.822
 4841SOL    HW214523   4.508   1.236   4.735
 4842SOL     OW14524   4.544   0.816   5.542
 4842SOL    HW114525   4.527   0.882   5.615
 4842SOL    HW214526   4.584   0.862   5.464
 4843SOL     OW14527   4.396   0.988   4.420
 4843SOL    HW114528   4.465   0.981   4.492
 4843SOL    HW214529   4.325   1.053   4.448
 4844SOL     OW14530   4.422   1.162   5.541
 4844SOL    HW114531   4.479   1.243   5.552
 4844SOL    HW214532   4.327   1.190   5.524
 4845SOL     OW14533   4.071   1.429   4.760
 4845SOL    HW114534   3.985   1.406   4.715
 4845SOL    HW214535   4.119   1.500   4.708
 4846SOL     OW14536   5.207   1.515   5.074
 4846SOL    HW114537   5.261   1.599   5.074
 4846SOL    HW214538   5.137   1.521   5.145
 4847SOL     OW14539   4.175   0.433   5.181
 4847SOL    HW114540   4.247   0.365   5.168
 4847SOL    HW214541   4.091   0.386   5.209
 4848SOL     OW14542   5.313   0.445   4.462
 4848SOL    HW114543   5.242   0.482   4.403
 4848SOL    HW214544   5.353   0.519   4.517
 4849SOL     OW14545   3.957   1.702   4.230
 4849SOL    HW114546   3.989   1.792   4.260
 4849SOL    HW214547   4.003   1.676   4.146
 4850SOL     OW14548   4.840   1.342   5.429
 4850SOL    HW114549   4.912   1.330   5.496
 4850SOL    HW214550   4.790   1.256   5.416
 4851SOL     OW14551   3.987   1.424   4.269
 4851SOL    HW114552   3.956   1.519   4.277
 4851SOL    HW214553   3.919   1.363   4.309
 4852SOL     OW14554   3.963   1.089   4.603
 4852SOL    HW114555   3.964   0.996   4.640
 4852SOL    HW214556   3.922   1.151   4.669
 4853SOL     OW14557   4.350   1.763   5.177
 4853SOL    HW114558   4.255   1.743   5.201
 4853SOL    HW214559   4.368   1.860   5.191
 4854SOL     OW14560   4.320   0.954   3.887
 4854SOL    HW114561   4.334   1.013   3.808
 4854SOL    HW214562   4.383   0.982   3.960
 4855SOL     OW14563   5.389   0.103   5.223
 4855SOL    HW114564   5.345   0.149   5.146
 4855SOL    HW214565   5.357   0.143   5.309
 4856SOL     OW14566   3.824   0.619   4.291
 4856SOL    HW114567   3.792   0.533   4.333
 4856SOL    HW214568   3.827   0.690   4.361
 4857SOL     OW14569   5.564   1.734   4.055
 4857SOL    HW114570   5.636   1.690   4.107
 4857SOL    HW214571   5.579   1.833   4.053
 4858SOL     OW14572   3.709   1.612   3.831
 4858SOL    HW114573   3.712   1.514   3.851
 4858SOL    HW214574   3.722   1.664   3.916
 4859SOL     OW14575   5.392   0.930   4.374
 4859SOL    HW114576   5.460   0.871   4.332
 4859SOL    HW214577   5.358   0.995   4.306
 4860SOL     OW14578   5.366   1.159   4.194
 4860SOL    HW114579   5.450   1.122   4.155
 4860SOL    HW214580   5.385   1.195   4.286
 4861SOL     OW14581   3.860   0.730   5.312
 4861SOL    HW114582   3.960   0.737   5.305
 4861SOL    HW214583   3.819   0.821   5.309
 4862SOL     OW14584   4.314   1.388   4.443
 4862SOL    HW114585   4.263   1.303   4.453
 4862SOL    HW214586   4.305   1.422   4.350
 4863SOL     OW14587   4.997   1.222   5.167
 4863SOL    HW114588   5.023   1.167   5.088
 4863SOL    HW214589   5.053   1.195   5.245
 4864SOL     OW14590   4.531   0.035   4.301
 4864SOL    HW114591   4.581   0.117   4.275
 4864SOL    HW214592   4.435   0.044   4.274
 4865SOL     OW14593   3.915   0.966   5.010
 4865SOL    HW114594   3.999   0.921   4.980
 4865SOL    HW214595   3.839   0.936   4.953
 4866SOL     OW14596   5.284   0.963   3.914
 4866SOL    HW114597   5.205   0.922   3.961
 4866SOL    HW214598   5.326   1.032   3.973
 4867SOL     OW14599   4.930   1.803   5.337
 4867SOL    HW114600   4.897   1.863   5.264
 4867SOL    HW214601   4.951   1.713   5.298
 4868SOL     OW14602   4.017   0.202   5.551
 4868SOL    HW114603   4.088   0.271   5.537
 4868SOL    HW214604   3.929   0.247   5.562
 4869SOL     OW14605   5.194   1.419   4.658
 4869SOL    HW114606   5.137   1.433   4.739
 4869SOL    HW214607   5.203   1.322   4.639
 4870SOL     OW14608   5.375   1.752   4.312
 4870SOL    HW114609   5.344   1.728   4.220
 4870SOL    HW214610   5.371   1.671   4.371
 4871SOL     OW14611   4.332   0.703   4.006
 4871SOL    HW114612   4.335   0.788   3.954
 4871SOL    HW214613   4.261   0.710   4.077
 4872SOL     OW14614   5.036   0.364   4.669
 4872SOL    HW114615   4.942   0.334   4.683
 4872SOL    HW214616   5.095   0.316   4.734
 4873SOL     OW14617   5.307   1.678   4.050
 4873SOL    HW114618   5.405   1.698   4.059
 4873SOL    HW214619   5.285   1.663   3.953
 4874SOL     OW14620   4.523   0.626   5.184
 4874SOL    HW114621   4.496   0.588   5.273
 4874SOL    HW214622   4.491   0.566   5.111
 4875SOL     OW14623   5.115   0.507   5.408
 4875SOL    HW114624   5.101   0.535   5.504
 4875SOL    HW214625   5.185   0.436   5.404
 4876SOL     OW14626   4.701   0.875   5.295
 4876SOL    HW114627   4.760   0.805   5.255
 4876SOL    HW214628   4.642   0.914   5.224
 4877SOL     OW14629   4.725   0.415   4.942
 4877SOL    HW114630   4.641   0.425   4.995
 4877SOL    HW214631   4.714   0.343   4.874
 4878SOL     OW14632   4.782   0.688   4.088
 4878SOL    HW114633   4.800   0.695   4.186
 4878SOL    HW214634   4.695   0.639   4.074
 4879SOL     OW14635   3.826   0.812   4.483
 4879SOL    HW114636   3.899   0.787   4.546
 4879SOL    HW214637   3.766   0.880   4.526
 4880SOL     OW14638   3.852   1.819   5.307
 4880SOL    HW114639   3.866   1.820   5.406
 4880SOL    HW214640   3.781   1.886   5.283
 4881SOL     OW14641   4.590   0.367   3.859
 4881SOL    HW114642   4.662   0.399   3.797
 4881SOL    HW214643   4.624   0.291   3.913
 4882SOL     OW14644   5.427   0.596   5.565
 4882SOL    HW114645   5.403   0.684   5.525
 4882SOL    HW214646   5.436   0.528   5.492
 4883SOL     OW14647   5.107   1.159   4.275
 4883SOL    HW114648   5.189   1.151   4.219
 4883SOL    HW214649   5.036   1.209   4.223
 4884SOL     OW14650   4.260   0.225   4.616
 4884SOL    HW114651   4.276   0.220   4.714
 4884SOL    HW214652   4.272   0.319   4.584
 4885SOL     OW14653   4.753   1.484   4.174
 4885SOL    HW114654   4.685   1.538   4.124
 4885SOL    HW214655   4.783   1.535   4.255
 4886SOL     OW14656   4.067   1.798   4.567
 4886SOL    HW114657   4.121   1.715   4.580
 4886SOL    HW214658   4.120   1.877   4.596
 4887SOL     OW14659   5.534   1.066   4.625
 4887SOL    HW114660   5.471   1.078   4.548
 4887SOL    HW214661   5.483   1.069   4.711
 4888SOL     OW14662   4.969   1.545   5.229
 4888SOL    HW114663   4.983   1.454   5.267
 4888SOL    HW214664   4.872   1.557   5.205
 4889SOL     OW14665   4.034   0.969   3.943
 4889SOL    HW114666   4.134   0.967   3.949
 4889SOL    HW214667   3.999   0.877   3.929
 4890SOL     OW14668   5.179   0.742   4.461
 4890SOL    HW114669   5.170   0.683   4.541
 4890SOL    HW214670   5.272   0.778   4.456
 4891SOL     OW14671   4.173   1.284   5.493
 4891SOL    HW114672   4.155   1.293   5.396
 4891SOL    HW214673   4.087   1.284   5.544
 4892SOL     OW14674   4.899   1.761   3.947
 4892SOL    HW114675   4.811   1.731   3.983
 4892SOL    HW214676   4.914   1.718   3.858
 4893SOL     OW14677   3.932   0.303   5.235
 4893SOL    HW114678   3.852   0.347   5.194
 4893SOL    HW214679   3.906   0.261   5.322
 4894SOL     OW14680   5.332   1.360   3.854
 4894SOL    HW114681   5.310   1.454   3.826
 4894SOL    HW214682   5.269   1.296   3.809
 4895SOL     OW14683   4.195   1.721   4.068
 4895SOL    HW114684   4.235   1.795   4.122
 4895SOL    HW214685   4.260   1.691   3.999
 4896SOL     OW14686   5.103   0.103   4.133
 4896SOL    HW114687   5.106   0.096   4.033
 4896SOL    HW214688   5.186   0.150   4.165
 4897SOL     OW14689   3.996   1.812   4.912
 4897SOL    HW114690   4.010   1.725   4.960
 4897SOL    HW214691   3.972   1.793   4.817
 4898SOL     OW14692   4.659   1.721   4.625
 4898SOL    HW114693   4.709   1.659   4.686
 4898SOL    HW214694   4.620   1.670   4.549
 4899SOL     OW14695   4.111   0.684   4.184
 4899SOL    HW114696   4.120   0.587   4.205
 4899SOL    HW214697   4.016   0.713   4.199
 4900SOL     OW14698   5.258   0.212   5.485
 4900SOL    HW114699   5.236   0.257   5.572
 4900SOL    HW214700   5.209   0.125   5.479
 4901SOL     OW14701   4.335   0.109   3.797
 4901SOL    HW114702   4.432   0.084   3.797
 4901SOL    HW214703   4.289   0.065   3.719
 4902SOL     OW14704   4.478   0.255   5.460
 4902SOL    HW114705   4.557   0.197   5.481
 4902SOL    HW214706   4.441   0.293   5.545
 4903SOL     OW14707   4.635   1.534   4.914
 4903SOL    HW114708   4.592   1.492   4.833
 4903SOL    HW214709   4.703   1.471   4.952
 4904SOL     OW14710   5.060   0.608   5.171
 4904SOL    HW114711   5.097   0.583   5.261
 4904SOL    HW214712   5.098   0.696   5.142
 4905SOL     OW14713   4.499   1.389   4.645
 4905SOL    HW114714   4.585   1.420   4.603
 4905SOL    HW214715   4.434   1.366   4.572
 4906SOL     OW14716   4.657   0.498   4.626
 4906SOL    HW114717   4.604   0.475   4.544
 4906SOL    HW214718   4.695   0.414   4.665
 4907SOL     OW14719   4.287   0.075   4.195
 4907SOL    HW114720   4.203   0.065   4.249
 4907SOL    HW214721   4.280   0.156   4.137
 4908SOL     OW14722   5.146   1.186   3.746
 4908SOL    HW114723   5.171   1.093   3.772
 4908SOL    HW214724   5.077   1.221   3.810
 4909SOL     OW14725   4.014   0.048   3.919
 4909SOL    HW114726   4.047   0.099   3.839
 4909SOL    HW214727   4.089   5.994   3.958
 4910SOL     OW14728   4.695   0.269   4.206
 4910SOL    HW114729   4.646   0.237   4.125
 4910SOL    HW214730   4.790   0.289   4.181
 4911SOL     OW14731   4.806   0.673   5.161
 4911SOL    HW114732   4.732   0.606   5.162
 4911SOL    HW214733   4.894   0.626   5.158
 4912SOL     OW14734   4.921   1.558   4.514
 4912SOL    HW114735   4.959   1.592   4.428
 4912SOL    HW214736   4.994   1.553   4.583
 4913SOL     OW14737   4.186   1.149   4.473
 4913SOL    HW114738   4.108   1.121   4.528
 4913SOL    HW214739   4.161   1.148   4.376
 4914SOL     OW14740   5.019   1.796   4.300
 4914SOL    HW114741   5.045   1.862   4.230
 4914SOL    HW214742   4.975   1.844   4.376
 4915SOL     OW14743   4.752   0.532   3.682
 4915SOL    HW114744   4.695   0.615   3.682
 4915SOL    HW214745   4.821   0.539   3.754
 4916SOL     OW14746   3.801   0.555   5.128
 4916SOL    HW114747   3.886   0.542   5.077
 4916SOL    HW214748   3.814   0.629   5.194
 4917SOL     OW14749   4.267   0.277   4.915
 4917SOL    HW114750   4.308   0.204   4.970
 4917SOL    HW214751   4.168   0.274   4.924
 4918SOL     OW14752   4.570   0.415   4.381
 4918SOL    HW114753   4.520   0.473   4.317
 4918SOL    HW214754   4.634   0.356   4.331
 4919SOL     OW14755   4.729   0.038   4.476
 4919SOL    HW114756   4.660   0.034   4.403
 4919SOL    HW214757   4.720   5.957   4.534
 4920SOL     OW14758   5.168   1.127   4.616
 4920SOL    HW114759   5.080   1.082   4.631
 4920SOL    HW214760   5.195   1.117   4.520
 4921SOL     OW14761   5.210   0.586   4.682
 4921SOL    HW114762   5.154   0.504   4.679
 4921SOL    HW214763   5.269   0.584   4.763
 4922SOL     OW14764   5.565   0.796   4.090
 4922SOL    HW114765   5.633   0.754   4.149
 4922SOL    HW214766   5.522   0.726   4.033
 4923SOL     OW14767   4.216   1.406   3.919
 4923SOL    HW114768   4.126   1.378   3.955
 4923SOL    HW214769   4.221   1.384   3.822
 4924SOL     OW14770   5.425   1.288   4.431
 4924SOL    HW114771   5.511   1.297   4.381
 4924SOL    HW214772   5.368   1.368   4.414
 4925SOL     OW14773   5.081   0.589   3.800
 4925SOL    HW114774   5.025   0.536   3.862
 4925SOL    HW214775   5.177   0.584   3.829
 4926SOL     OW14776   4.285   0.268   4.018
 4926SOL    HW114777   4.298   0.212   3.936
 4926SOL    HW214778   4.254   0.359   3.991
 4927SOL     OW14779   5.457   1.284   5.306
 4927SOL    HW114780   5.540   1.231   5.287
 4927SOL    HW214781   5.473   1.342   5.386
 4928SOL     OW14782   4.776   1.351   5.083
 4928SOL    HW114783   4.689   1.324   5.123
 4928SOL    HW214784   4.850   1.303   5.129
 4929SOL     OW14785   5.342   1.665   5.377
 4929SOL    HW114786   5.333   1.683   5.279
 4929SOL    HW214787   5.427   1.615   5.394
 4930SOL     OW14788   4.765   1.186   4.852
 4930SOL    HW114789   4.777   1.247   4.930
 4930SOL    HW214790   4.754   1.240   4.769
 4931SOL     OW14791   5.356   1.090   4.817
 4931SOL    HW114792   5.349   1.167   4.880
 4931SOL    HW214793   5.284   1.097   4.748
 4932SOL     OW14794   4.644   0.161   5.075
 4932SOL    HW114795   4.677   0.086   5.017
 4932SOL    HW214796   4.708   0.176   5.150
 4933SOL     OW14797   4.708   1.107   5.444
 4933SOL    HW114798   4.610   1.127   5.451
 4933SOL    HW214799   4.722   1.032   5.380
 4934SOL     OW14800   4.448   1.072   4.138
 4934SOL    HW114801   4.429   1.050   4.234
 4934SOL    HW214802   4.526   1.017   4.107
 4935SOL     OW14803   4.130   0.807   4.976
 4935SOL    HW114804   4.213   0.813   5.033
 4935SOL    HW214805   4.087   0.718   4.990
 4936SOL     OW14806   4.986   0.403   5.031
 4936SOL    HW114807   5.014   0.486   5.081
 4936SOL    HW214808   4.899   0.421   4.985
 4937SOL     OW14809   3.787   1.549   5.070
 4937SOL    HW114810   3.738   1.613   5.010
 4937SOL    HW214811   3.882   1.579   5.081
 4938SOL     OW14812   4.112   1.136   4.216
 4938SOL    HW114813   4.098   1.212   4.152
 4938SOL    HW214814   4.132   1.053   4.165
 4939SOL     OW14815   4.308   0.528   4.584
 4939SOL    HW114816   4.306   0.595   4.511
 4939SOL    HW214817   4.371   0.558   4.656
 4940SOL     OW14818   4.989   1.345   4.099
 4940SOL    HW114819   5.039   1.417   4.148
 4940SOL    HW214820   4.891   1.356   4.115
 4941SOL     OW14821   5.051   1.439   4.875
 4941SOL    HW114822   5.105   1.465   4.955
 4941SOL    HW214823   4.986   1.367   4.901
 4942SOL     OW14824   5.337   0.644   4.246
 4942SOL    HW114825   5.251   0.682   4.279
 4942SOL    HW214826   5.359   0.684   4.157
 4943SOL     OW14827   4.063   1.547   5.009
 4943SOL    HW114828   4.062   1.497   4.922
 4943SOL    HW214829   4.157   1.563   5.038
 4944SOL     OW14830   4.121   0.720   5.295
 4944SOL    HW114831   4.169   0.782   5.233
 4944SOL    HW214832   4.186   0.658   5.338
 4945SOL     OW14833   5.334   0.802   5.411
 4945SOL    HW114834   5.243   0.769   5.384
 4945SOL    HW214835   5.371   0.859   5.338
 4946SOL     OW14836   4.720   0.140   5.502
 4946SOL    HW114837   4.778   0.205   5.453
 4946SOL    HW214838   4.738   0.047   5.469
 4947SOL     OW14839   4.189   0.005   5.459
 4947SOL    HW114840   4.192   5.999   5.359
 4947SOL    HW214841   4.136   0.085   5.486
 4948SOL     OW14842   4.270   0.864   4.732
 4948SOL    HW114843   4.315   0.953   4.727
 4948SOL    HW214844   4.224   0.854   4.820
 4949SOL     OW14845   5.052   0.848   4.771
 4949SOL    HW114846   4.961   0.844   4.730
 4949SOL    HW214847   5.103   0.765   4.748
 4950SOL     OW14848   4.921   0.472   3.978
 4950SOL    HW114849   4.957   0.412   4.050
 4950SOL    HW214850   4.883   0.555   4.019
 4951SOL     OW14851   4.007   0.202   4.989
 4951SOL    HW114852   3.980   0.214   5.084
 4951SOL    HW214853   4.027   0.106   4.971
 4952SOL     OW14854   3.773   1.288   5.012
 4952SOL    HW114855   3.820   1.234   5.081
 4952SOL    HW214856   3.784   1.385   5.032
 4953SOL     OW14857   4.489   0.658   4.777
 4953SOL    HW114858   4.560   0.612   4.724
 4953SOL    HW214859   4.467   0.746   4.735
 4954SOL     OW14860   5.440   0.989   5.583
 4954SOL    HW114861   5.398   0.918   5.526
 4954SOL    HW214862   5.380   1.009   5.660
 4955SOL     OW14863   4.060   0.048   4.334
 4955SOL    HW114864   4.030   0.137   4.368
 4955SOL    HW214865   3.994   5.978   4.362
 4956SOL     OW14866   5.307   0.399   4.108
 4956SOL    HW114867   5.368   0.322   4.128
 4956SOL    HW214868   5.312   0.466   4.182
 4957SOL     OW14869   4.779   0.781   4.681
 4957SOL    HW114870   4.767   0.795   4.779
 4957SOL    HW214871   4.735   0.695   4.654
 4958SOL     OW14872   4.715   1.580   5.459
 4958SOL    HW114873   4.680   1.625   5.377
 4958SOL    HW214874   4.759   1.494   5.434
 4959SOL     OW14875   5.602   1.523   5.361
 4959SOL    HW114876   5.612   1.486   5.268
 4959SOL    HW214877   5.691   1.551   5.396
 4960SOL     OW14878   4.079   0.928   5.508
 4960SOL    HW114879   4.156   0.937   5.571
 4960SOL    HW214880   4.099   0.858   5.439
 4961SOL     OW14881   5.202   0.325   3.868
 4961SOL    HW114882   5.180   0.228   3.873
 4961SOL    HW214883   5.238   0.356   3.956
 4962SOL     OW14884   5.030   0.847   3.768
 4962SOL    HW114885   5.041   0.747   3.772
 4962SOL    HW214886   5.056   0.879   3.678
 4963SOL     OW14887   4.778   1.362   4.626
 4963SOL    HW114888   4.769   1.289   4.558
 4963SOL    HW214889   4.831   1.437   4.587
 4964SOL     OW14890   4.017   0.770   4.682
 4964SOL    HW114891   4.108   0.805   4.659
 4964SOL    HW214892   4.025   0.675   4.712
 4965SOL     OW14893   4.065   0.505   4.724
 4965SOL    HW114894   4.024   0.414   4.721
 4965SOL    HW214895   4.141   0.509   4.660
 4966SOL     OW14896   4.892   0.365   5.420
 4966SOL    HW114897   4.824   0.417   5.473
 4966SOL    HW214898   4.972   0.423   5.404
 4967SOL     OW14899   4.862   0.196   5.226
 4967SOL    HW114900   4.868   0.267   5.296
 4967SOL    HW214901   4.889   0.234   5.138
 4968SOL     OW14902   3.694   1.343   3.945
 4968SOL    HW114903   3.598   1.353   3.919
 4968SOL    HW214904   3.712   1.248   3.970
 4969SOL     OW14905   3.819   1.779   4.669
 4969SOL    HW114906   3.772   1.701   4.628
 4969SOL    HW214907   3.906   1.794   4.622
 4970SOL     OW14908   4.225   1.593   4.630
 4970SOL    HW114909   4.301   1.656   4.645
 4970SOL    HW214910   4.254   1.520   4.569
 4971SOL     OW14911   4.705   0.785   4.938
 4971SOL    HW114912   4.744   0.778   5.030
 4971SOL    HW214913   4.645   0.707   4.922
 4972SOL     OW14914   3.733   0.529   4.845
 4972SOL    HW114915   3.816   0.522   4.789
 4972SOL    HW214916   3.758   0.519   4.942
 4973SOL     OW14917   3.941   0.504   5.442
 4973SOL    HW114918   3.988   0.453   5.371
 4973SOL    HW214919   3.905   0.589   5.405
 4974SOL     OW14920   5.090   0.928   5.371
 4974SOL    HW114921   5.121   1.023   5.370
 4974SOL    HW214922   5.091   0.892   5.278
 4975SOL     OW14923   4.554   0.558   4.038
 4975SOL    HW114924   4.555   0.481   3.974
 4975SOL    HW214925   4.466   0.605   4.033
 4976SOL     OW14926   5.362   0.561   4.907
 4976SOL    HW114927   5.351   0.501   4.986
 4976SOL    HW214928   5.452   0.545   4.865
 4977SOL     OW14929   3.963   1.540   5.455
 4977SOL    HW114930   3.961   1.607   5.529
 4977SOL    HW214931   3.955   1.448   5.494
 4978SOL     OW14932   4.449   0.475   4.974
 4978SOL    HW114933   4.378   0.405   4.964
 4978SOL    HW214934   4.441   0.542   4.900
 4979SOL     OW14935   4.638   1.658   5.200
 4979SOL    HW114936   4.641   1.610   5.112
 4979SOL    HW214937   4.627   1.756   5.184
 4980SOL     OW14938   4.230   0.490   3.873
 4980SOL    HW114939   4.284   0.560   3.920
 4980SOL    HW214940   4.135   0.520   3.867
 4981SOL     OW14941   3.893   1.144   5.196
 4981SOL    HW114942   3.867   1.104   5.284
 4981SOL    HW214943   3.900   1.072   5.127
 4982SOL     OW14944   5.031   1.053   4.952
 4982SOL    HW114945   5.066   1.000   4.875
 4982SOL    HW214946   4.932   1.064   4.942
 4983SOL     OW14947   5.045   0.884   4.030
 4983SOL    HW114948   4.960   0.854   4.073
 4983SOL    HW214949   5.042   0.862   3.932
 4984SOL     OW14950   5.535   1.708   4.888
 4984SOL    HW114951   5.598   1.743   4.820
 4984SOL    HW214952   5.485   1.630   4.850
 4985SOL     OW14953   4.938   1.696   4.866
 4985SOL    HW114954   5.009   1.763   4.841
 4985SOL    HW214955   4.975   1.603   4.855
 4986SOL     OW14956   3.828   1.274   4.752
 4986SOL    HW114957   3.816   1.275   4.852
 4986SOL    HW214958   3.751   1.227   4.710
 4987SOL     OW14959   4.429   1.662   5.462
 4987SOL    HW114960   4.331   1.686   5.458
 4987SOL    HW214961   4.472   1.684   5.375
 4988SOL     OW14962   5.439   0.164   4.212
 4988SOL    HW114963   5.537   0.149   4.197
 4988SOL    HW214964   5.406   0.099   4.280
 4989SOL     OW14965   5.089   1.562   4.211
 4989SOL    HW114966   5.162   1.573   4.143
 4989SOL    HW214967   5.051   1.651   4.234
 4990SOL     OW14968   3.869   1.826   5.583
 4990SOL    HW114969   3.790   1.767   5.595
 4990SOL    HW214970   3.909   1.848   5.673
 4991SOL     OW14971   4.997   0.919   4.368
 4991SOL    HW114972   5.064   0.851   4.397
 4991SOL    HW214973   5.044   1.004   4.343
 4992SOL     OW14974   4.510   1.247   5.126
 4992SOL    HW114975   4.486   1.303   5.206
 4992SOL    HW214976   4.438   1.253   5.058
 4993SOL     OW14977   4.377   1.618   3.893
 4993SOL    HW114978   4.408   1.628   3.798
 4993SOL    HW214979   4.325   1.533   3.902
 4994SOL     OW14980   5.353   1.744   5.105
 4994SOL    HW114981   5.413   1.738   5.025
 4994SOL    HW214982   5.342   1.839   5.132
 4995SOL     OW14983   5.592   0.123   4.687
 4995SOL    HW114984   5.623   0.072   4.607
 4995SOL    HW214985   5.503   0.165   4.668
 4996SOL     OW14986   3.986   0.287   4.425
 4996SOL    HW114987   3.897   0.312   4.388
 4996SOL    HW214988   3.985   0.297   4.525
 4997SOL     OW14989   4.954   1.602   3.736
 4997SOL    HW114990   4.921   1.520   3.784
 4997SOL    HW214991   4.901   1.615   3.652
 4998SOL     OW14992   4.564   0.991   5.090
 4998SOL    HW114993   4.629   0.974   5.016
 4998SOL    HW214994   4.541   1.088   5.091
 4999SOL     OW14995   4.630   0.923   4.001
 4999SOL    HW114996   4.706   0.965   3.951
 4999SOL    HW214997   4.637   0.824   3.997
 5000SOL     OW14998   5.244   1.619   3.786
 5000SOL    HW114999   5.144   1.619   3.799
 5000SOL    HW215000   5.264   1.644   3.691
 5001SOL     OW15001   4.089   1.315   5.245
 5001SOL    HW115002   4.088   1.383   5.171
 5001SOL    HW215003   4.020   1.245   5.226
 5002SOL     OW15004   5.341   1.283   5.032
 5002SOL    HW115005   5.396   1.265   5.113
 5002SOL    HW215006   5.277   1.357   5.051
 5003SOL     OW15007   4.726   1.147   4.464
 5003SOL    HW115008   4.674   1.069   4.499
 5003SOL    HW215009   4.782   1.118   4.387
 5004SOL     OW15010   4.779   0.183   4.701
 5004SOL    HW115011   4.787   0.148   4.608
 5004SOL    HW215012   4.694   0.149   4.742
 5005SOL     OW15013   4.353   1.474   4.173
 5005SOL    HW115014   4.389   1.409   4.106
 5005SOL    HW215015   4.273   1.521   4.133
 5006SOL     OW15016   5.426   0.375   5.125
 5006SOL    HW115017   5.486   0.454   5.128
 5006SOL    HW215018   5.465   0.305   5.066
 5007SOL     OW15019   3.955   1.350   4.009
 5007SOL    HW115020   3.862   1.368   3.979
 5007SOL    HW215021   3.968   1.386   4.102
 5008SOL     OW15022   3.836   1.066   5.456
 5008SOL    HW115023   3.762   1.038   5.518
 5008SOL    HW215024   3.918   1.012   5.476
 5009SOL     OW15025   4.407   0.228   5.178
 5009SOL    HW115026   4.489   0.196   5.130
 5009SOL    HW215027   4.431   0.255   5.271
 5010SOL     OW15028   3.786   0.349   3.756
 5010SOL    HW115029   3.687   0.355   3.770
 5010SOL    HW215030   3.817   0.426   3.701
 5011SOL     OW15031   5.164   0.851   5.115
 5011SOL    HW115032   5.105   0.913   5.063
 5011SOL    HW215033   5.259   0.868   5.090
 5012SOL     OW15034   3.808   0.177   4.076
 5012SOL    HW115035   3.743   0.220   4.013
 5012SOL    HW215036   3.881   0.134   4.024
 5013SOL     OW15037   4.909   1.347   3.839
 5013SOL    HW115038   4.856   1.262   3.834
 5013SOL    HW215039   4.949   1.355   3.931
 5014SOL     OW15040   4.339   0.822   5.154
 5014SOL    HW115041   4.389   0.908   5.140
 5014SOL    HW215042   4.403   0.750   5.180
 5015SOL     OW15043   5.217   1.781   4.720
 5015SOL    HW115044   5.193   1.862   4.666
 5015SOL    HW215045   5.310   1.752   4.697
 5016SOL     OW15046   4.440   0.570   5.432
 5016SOL    HW115047   4.466   0.647   5.491
 5016SOL    HW215048   4.463   0.484   5.478
 5017SOL     OW15049   5.165   1.196   5.358
 5017SOL    HW115050   5.153   1.207   5.457
 5017SOL    HW215051   5.251   1.238   5.330
 5018SOL     OW15052   4.093   1.726   5.262
 5018SOL    HW115053   4.005   1.774   5.260
 5018SOL    HW215054   4.081   1.635   5.302
 5019SOL     OW15055   5.410   0.865   4.962
 5019SOL    HW115056   5.401   0.781   4.908
 5019SOL    HW215057   5.399   0.944   4.903
 5020SOL     OW15058   4.955   0.315   4.191
 5020SOL    HW115059   5.001   0.226   4.191
 5020SOL    HW215060   4.975   0.362   4.277
 5021SOL     OW15061   4.271   0.731   4.398
 5021SOL    HW115062   4.317   0.819   4.394
 5021SOL    HW215063   4.212   0.720   4.318
 5022SOL     OW15064   5.462   0.358   5.397
 5022SOL    HW115065   5.455   0.353   5.297
 5022SOL    HW215066   5.386   0.307   5.438
 5023SOL     OW15067   5.453   0.958   5.204
 5023SOL    HW115068   5.482   1.052   5.186
 5023SOL    HW215069   5.442   0.909   5.118
 5024SOL     OW15070   4.575   1.399   3.734
 5024SOL    HW115071   4.573   1.396   3.834
 5024SOL    HW215072   4.634   1.474   3.705
 5025SOL     OW15073   4.396   1.802   4.670
 5025SOL    HW115074   4.353   1.892   4.668
 5025SOL    HW215075   4.491   1.809   4.641
 5026SOL     OW15076   4.586   0.948   4.612
 5026SOL    HW115077   4.664   0.891   4.635
 5026SOL    HW215078   4.561   1.005   4.690
 5027SOL     OW15079   4.813   1.024   3.806
 5027SOL    HW115080   4.778   1.053   3.718
 5027SOL    HW215081   4.883   0.953   3.793
 5028SOL     OW15082   5.561   1.575   4.580
 5028SOL    HW115083   5.477   1.551   4.531
 5028SOL    HW215084   5.582   1.504   4.648
 5029SOL     OW15085   3.927   1.288   5.591
 5029SOL    HW115086   3.899   1.201   5.551
 5029SOL    HW215087   3.874   1.305   5.674
 5030SOL     OW15088   3.841   1.215   4.348
 5030SOL    HW115089   3.843   1.184   4.442
 5030SOL    HW215090   3.916   1.174   4.297
 5031SOL     OW15091   4.447   1.386   5.339
 5031SOL    HW115092   4.351   1.376   5.367
 5031SOL    HW215093   4.488   1.462   5.388
 5032SOL     OW15094   5.540   0.209   4.956
 5032SOL    HW115095   5.579   0.133   5.007
 5032SOL    HW215096   5.557   0.195   4.858
 5033SOL     OW15097   4.127   0.423   4.244
 5033SOL    HW115098   4.173   0.350   4.193
 5033SOL    HW215099   4.072   0.383   4.317
 5034SOL     OW15100   5.413   1.468   4.833
 5034SOL    HW115101   5.333   1.461   4.772
 5034SOL    HW215102   5.400   1.409   4.912
 5035SOL     OW15103   4.036   0.554   4.987
 5035SOL    HW115104   4.099   0.505   5.047
 5035SOL    HW215105   4.057   0.530   4.892
 5036SOL     OW15106   4.543   1.570   4.418
 5036SOL    HW115107   4.555   1.586   4.320
 5036SOL    HW215108   4.452   1.533   4.435
 5037SOL     OW15109   5.187   0.280   4.876
 5037SOL    HW115110   5.252   0.231   4.935
 5037SOL    HW215111   5.123   0.332   4.933
 5038SOL     OW15112   4.726   5.954   4.912
 5038SOL    HW115113   4.654   5.943   4.844
 5038SOL    HW215114   4.811   5.980   4.867
 5039SOL     OW15115   4.542   1.301   4.053
 5039SOL    HW115116   4.486   1.222   4.077
 5039SOL    HW215117   4.597   1.328   4.132
 5040SOL     OW15118   4.354   1.553   5.000
 5040SOL    HW115119   4.345   1.632   5.060
 5040SOL    HW215120   4.450   1.544   4.971
 5041SOL     OW15121   5.102   0.058   3.867
 5041SOL    HW115122   5.129   0.005   3.786
 5041SOL    HW215123   5.022   0.015   3.908
 5042SOL     OW15124   5.004   0.461   4.413
 5042SOL    HW115125   4.959   0.550   4.406
 5042SOL    HW215126   5.021   0.440   4.510
 5043SOL     OW15127   5.356   0.230   4.629
 5043SOL    HW115128   5.311   0.235   4.719
 5043SOL    HW215129   5.321   0.304   4.571
 5044SOL     OW15130   3.748   1.086   4.011
 5044SOL    HW115131   3.848   1.085   4.011
 5044SOL    HW215132   3.715   0.992   4.007
 5045SOL     OW15133   4.608   1.652   4.012
 5045SOL    HW115134   4.519   1.630   3.973
 5045SOL    HW215135   4.598   1.725   4.080
 5046SOL     OW15136   3.968   0.653   5.700
 5046SOL    HW115137   3.894   0.656   5.767
 5046SOL    HW215138   3.935   0.613   5.614
 5047SOL     OW15139   5.515   0.580   5.814
 5047SOL    HW115140   5.490   0.598   5.718
 5047SOL    HW215141   5.457   0.507   5.849
 5048SOL     OW15142   3.958   1.678   0.039
 5048SOL    HW115143   3.985   1.740   0.113
 5048SOL    HW215144   4.002   1.707   5.954
 5049SOL     OW15145   4.327   0.973   5.757
 5049SOL    HW115146   4.350   1.036   5.682
 5049SOL    HW215147   4.359   1.011   5.843
 5050SOL     OW15148   5.548   1.710   5.933
 5050SOL    HW115149   5.601   1.640   5.981
 5050SOL    HW215150   5.595   1.798   5.940
 5051SOL     OW15151   3.714   1.621   5.682
 5051SOL    HW115152   3.725   1.525   5.707
 5051SOL    HW215153   3.713   1.678   5.764
 5052SOL     OW15154   5.409   0.907   0.195
 5052SOL    HW115155   5.495   0.889   0.244
 5052SOL    HW215156   5.423   0.892   0.097
 5053SOL     OW15157   5.412   1.138   0.007
 5053SOL    HW115158   5.507   1.109   0.017
 5053SOL    HW215159   5.361   1.114   0.090
 5054SOL     OW15160   5.260   1.017   5.782
 5054SOL    HW115161   5.182   0.954   5.784
 5054SOL    HW215162   5.296   1.029   5.875
 5055SOL     OW15163   4.291   0.731   5.873
 5055SOL    HW115164   4.301   0.810   5.813
 5055SOL    HW215165   4.272   0.762   5.966
 5056SOL     OW15166   4.575   0.389   5.713
 5056SOL    HW115167   4.647   0.431   5.658
 5056SOL    HW215168   4.606   0.301   5.748
 5057SOL     OW15169   4.040   0.939   5.843
 5057SOL    HW115170   4.133   0.963   5.815
 5057SOL    HW215171   3.998   0.880   5.774
 5058SOL     OW15172   4.880   1.769   5.825
 5058SOL    HW115173   4.787   1.735   5.843
 5058SOL    HW215174   4.914   1.729   5.740
 5059SOL     OW15175   5.356   1.371   5.628
 5059SOL    HW115176   5.329   1.465   5.650
 5059SOL    HW215177   5.275   1.314   5.616
 5060SOL     OW15178   4.211   1.773   5.942
 5060SOL    HW115179   4.231   1.818   0.030
 5060SOL    HW215180   4.296   1.760   5.891
 5061SOL     OW15181   4.332   0.109   5.657
 5061SOL    HW115182   4.428   0.082   5.660
 5061SOL    HW215183   4.291   0.073   5.573
 5062SOL     OW15184   5.133   1.209   5.620
 5062SOL    HW115185   5.174   1.130   5.666
 5062SOL    HW215186   5.071   1.256   5.684
 5063SOL     OW15187   4.015   0.060   5.777
 5063SOL    HW115188   4.028   0.111   5.692
 5063SOL    HW215189   4.084   5.988   5.784
 5064SOL     OW15190   4.751   0.532   5.564
 5064SOL    HW115191   4.692   0.612   5.562
 5064SOL    HW215192   4.838   0.556   5.608
 5065SOL     OW15193   5.547   0.808   5.972
 5065SOL    HW115194   5.618   0.773   0.033
 5065SOL    HW215195   5.532   0.743   5.898
 5066SOL     OW15196   4.209   1.435   5.773
 5066SOL    HW115197   4.127   1.401   5.819
 5066SOL    HW215198   4.217   1.392   5.683
 5067SOL     OW15199   5.397   1.294   0.331
 5067SOL    HW115200   5.494   1.275   0.318
 5067SOL    HW215201   5.357   1.326   0.245
 5068SOL     OW15202   5.088   0.589   5.653
 5068SOL    HW115203   5.029   0.554   5.726
 5068SOL    HW215204   5.184   0.580   5.681
 5069SOL     OW15205   4.259   0.243   5.877
 5069SOL    HW115206   4.265   0.187   5.795
 5069SOL    HW215207   4.240   0.338   5.851
 5070SOL     OW15208   4.111   1.117   0.052
 5070SOL    HW115209   4.089   1.208   0.016
 5070SOL    HW215210   4.060   1.048   0.001
 5071SOL     OW15211   4.944   0.549   5.880
 5071SOL    HW115212   4.993   0.465   5.905
 5071SOL    HW215213   4.857   0.552   5.929
 5072SOL     OW15214   5.180   0.322   5.736
 5072SOL    HW115215   5.139   0.231   5.744
 5072SOL    HW215216   5.217   0.350   5.824
 5073SOL     OW15217   5.050   0.862   5.640
 5073SOL    HW115218   5.046   0.762   5.641
 5073SOL    HW215219   5.066   0.894   5.547
 5074SOL     OW15220   3.735   1.323   5.775
 5074SOL    HW115221   3.650   1.336   5.723
 5074SOL    HW215222   3.732   1.235   5.822
 5075SOL     OW15223   4.536   0.604   5.872
 5075SOL    HW115224   4.534   0.517   5.822
 5075SOL    HW215225   4.444   0.643   5.874
 5076SOL     OW15226   4.194   0.481   5.769
 5076SOL    HW115227   4.249   0.560   5.798
 5076SOL    HW215228   4.113   0.513   5.720
 5077SOL     OW15229   5.485   0.116   0.129
 5077SOL    HW115230   5.558   0.141   0.065
 5077SOL    HW215231   5.491   0.018   0.149
 5078SOL     OW15232   4.406   1.616   5.752
 5078SOL    HW115233   4.405   1.638   5.654
 5078SOL    HW215234   4.328   1.557   5.773
 5079SOL     OW15235   4.956   1.630   5.604
 5079SOL    HW115236   4.920   1.544   5.639
 5079SOL    HW215237   4.911   1.653   5.518
 5080SOL     OW15238   4.671   0.883   5.884
 5080SOL    HW115239   4.722   0.920   5.806
 5080SOL    HW215240   4.630   0.795   5.859
 5081SOL     OW15241   5.252   1.638   5.650
 5081SOL    HW115242   5.153   1.622   5.648
 5081SOL    HW215243   5.283   1.662   5.558
 5082SOL     OW15244   4.807   1.096   0.333
 5082SOL    HW115245   4.710   1.085   0.358
 5082SOL    HW215246   4.821   1.064   0.240
 5083SOL     OW15247   3.976   1.365   5.910
 5083SOL    HW115248   3.891   1.353   5.860
 5083SOL    HW215249   3.972   1.449   5.964
 5084SOL     OW15250   3.781   0.342   5.614
 5084SOL    HW115251   3.689   0.341   5.574
 5084SOL    HW215252   3.833   0.417   5.575
 5085SOL     OW15253   3.812   0.160   5.917
 5085SOL    HW115254   3.760   0.218   5.855
 5085SOL    HW215255   3.886   0.115   5.867
 5086SOL     OW15256   4.929   1.369   5.745
 5086SOL    HW115257   4.838   1.347   5.709
 5086SOL    HW215258   4.941   1.327   5.835
 5087SOL     OW15259   5.013   0.323   0.020
 5087SOL    HW115260   4.998   0.225   0.011
 5087SOL    HW215261   5.000   0.351   0.115
 5088SOL     OW15262   4.568   1.411   5.612
 5088SOL    HW115263   4.522   1.462   5.685
 5088SOL    HW215264   4.626   1.474   5.559
 5089SOL     OW15265   4.807   0.975   5.680
 5089SOL    HW115266   4.763   1.015   5.599
 5089SOL    HW215267   4.901   0.950   5.657
 5090SOL     OW15268   5.086   0.078   5.762
 5090SOL    HW115269   5.109   0.016   5.686
 5090SOL    HW215270   5.020   0.033   5.822
 5091SOL     OW15271   3.785   1.062   5.889
 5091SOL    HW115272   3.883   1.041   5.884
 5091SOL    HW215273   3.733   0.977   5.894
 5092SOL     OW15274   4.643   1.645   5.893
 5092SOL    HW115275   4.564   1.617   5.839
 5092SOL    HW215276   4.617   1.718   5.956
 5093SOL     OW15277   3.975   2.538   0.129
 5093SOL    HW115278   3.913   2.460   0.139
 5093SOL    HW215279   4.011   2.540   0.036
 5094SOL     OW15280   3.981   2.130   0.977
 5094SOL    HW115281   4.007   2.103   1.070
 5094SOL    HW215282   3.884   2.113   0.963
 5095SOL     OW15283   3.750   2.244   0.625
 5095SOL    HW115284   3.680   2.276   0.690
 5095SOL    HW215285   3.718   2.161   0.581
 5096SOL     OW15286   4.260   3.171   1.169
 5096SOL    HW115287   4.180   3.194   1.113
 5096SOL    HW215288   4.293   3.253   1.214
 5097SOL     OW15289   5.273   3.358   0.685
 5097SOL    HW115290   5.245   3.348   0.780
 5097SOL    HW215291   5.202   3.407   0.634
 5098SOL     OW15292   4.831   2.566   0.639
 5098SOL    HW115293   4.900   2.637   0.651
 5098SOL    HW215294   4.765   2.569   0.715
 5099SOL     OW15295   5.512   2.491   0.184
 5099SOL    HW115296   5.483   2.468   0.091
 5099SOL    HW215297   5.478   2.422   0.248
 5100SOL     OW15298   4.472   3.029   1.051
 5100SOL    HW115299   4.382   3.047   1.089
 5100SOL    HW215300   4.503   3.110   1.000
 5101SOL     OW15301   4.560   2.677   1.799
 5101SOL    HW115302   4.555   2.771   1.832
 5101SOL    HW215303   4.582   2.676   1.702
 5102SOL     OW15304   4.372   2.849   0.689
 5102SOL    HW115305   4.455   2.850   0.743
 5102SOL    HW215306   4.307   2.916   0.724
 5103SOL     OW15307   4.423   3.019   1.798
 5103SOL    HW115308   4.475   3.105   1.809
 5103SOL    HW215309   4.329   3.040   1.775
 5104SOL     OW15310   4.068   3.291   1.029
 5104SOL    HW115311   3.979   3.256   0.998
 5104SOL    HW215312   4.105   3.353   0.960
 5105SOL     OW15313   5.195   3.369   1.348
 5105SOL    HW115314   5.255   3.450   1.354
 5105SOL    HW215315   5.122   3.377   1.415
 5106SOL     OW15316   4.166   2.291   1.472
 5106SOL    HW115317   4.249   2.235   1.460
 5106SOL    HW215318   4.089   2.232   1.496
 5107SOL     OW15319   5.344   2.305   0.730
 5107SOL    HW115320   5.323   2.369   0.656
 5107SOL    HW215321   5.311   2.342   0.817
 5108SOL     OW15322   3.974   3.570   0.510
 5108SOL    HW115323   4.016   3.657   0.536
 5108SOL    HW215324   3.968   3.563   0.411
 5109SOL     OW15325   4.836   3.198   1.691
 5109SOL    HW115326   4.891   3.199   1.775
 5109SOL    HW215327   4.785   3.112   1.686
 5110SOL     OW15328   3.978   3.303   0.538
 5110SOL    HW115329   3.970   3.403   0.539
 5110SOL    HW215330   3.912   3.264   0.603
 5111SOL     OW15331   3.958   2.938   0.882
 5111SOL    HW115332   3.962   2.848   0.927
 5111SOL    HW215333   3.931   3.007   0.948
 5112SOL     OW15334   4.349   3.620   1.445
 5112SOL    HW115335   4.259   3.598   1.481
 5112SOL    HW215336   4.370   3.716   1.464
 5113SOL     OW15337   4.314   2.806   0.134
 5113SOL    HW115338   4.259   2.888   0.113
 5113SOL    HW215339   4.385   2.830   0.201
 5114SOL     OW15340   5.340   1.999   1.469
 5114SOL    HW115341   5.311   2.081   1.419
 5114SOL    HW215342   5.315   2.008   1.565
 5115SOL     OW15343   3.837   2.489   0.561
 5115SOL    HW115344   3.813   2.395   0.583
 5115SOL    HW215345   3.819   2.548   0.641
 5116SOL     OW15346   5.568   3.597   0.317
 5116SOL    HW115347   5.632   3.547   0.375
 5116SOL    HW215348   5.593   3.693   0.314
 5117SOL     OW15349   3.692   3.388   0.151
 5117SOL    HW115350   3.710   3.319   0.221
 5117SOL    HW215351   3.725   3.477   0.184
 5118SOL     OW15352   5.376   2.762   0.681
 5118SOL    HW115353   5.460   2.721   0.647
 5118SOL    HW215354   5.346   2.834   0.618
 5119SOL     OW15355   5.348   2.960   0.514
 5119SOL    HW115356   5.368   2.988   0.420
 5119SOL    HW215357   5.375   3.034   0.577
 5120SOL     OW15358   3.855   2.602   1.592
 5120SOL    HW115359   3.954   2.591   1.585
 5120SOL    HW215360   3.831   2.699   1.587
 5121SOL     OW15361   4.317   3.238   0.707
 5121SOL    HW115362   4.262   3.156   0.721
 5121SOL    HW215363   4.305   3.271   0.613
 5122SOL     OW15364   5.029   3.088   1.443
 5122SOL    HW115365   5.053   3.039   1.359
 5122SOL    HW215366   5.102   3.077   1.510
 5123SOL     OW15367   4.551   1.869   0.511
 5123SOL    HW115368   4.598   1.955   0.495
 5123SOL    HW215369   4.452   1.885   0.514
 5124SOL     OW15370   3.901   2.807   1.264
 5124SOL    HW115371   3.983   2.760   1.232
 5124SOL    HW215372   3.821   2.748   1.251
 5125SOL     OW15373   5.187   2.928   0.188
 5125SOL    HW115374   5.138   2.847   0.154
 5125SOL    HW215375   5.263   2.900   0.246
 5126SOL     OW15376   4.927   3.675   1.624
 5126SOL    HW115377   4.898   3.730   1.546
 5126SOL    HW215378   4.944   3.581   1.593
 5127SOL     OW15379   4.026   2.105   1.833
 5127SOL    HW115380   4.069   2.192   1.813
 5127SOL    HW215381   3.936   2.121   1.873
 5128SOL     OW15382   5.203   3.280   0.929
 5128SOL    HW115383   5.139   3.293   1.006
 5128SOL    HW215384   5.203   3.185   0.901
 5129SOL     OW15385   5.370   3.595   0.579
 5129SOL    HW115386   5.358   3.573   0.483
 5129SOL    HW215387   5.358   3.512   0.634
 5130SOL     OW15388   4.331   2.575   0.295
 5130SOL    HW115389   4.337   2.652   0.231
 5130SOL    HW215390   4.253   2.589   0.356
 5131SOL     OW15391   5.024   2.239   0.941
 5131SOL    HW115392   4.930   2.208   0.932
 5131SOL    HW215393   5.073   2.179   1.005
 5132SOL     OW15394   5.311   3.520   0.302
 5132SOL    HW115395   5.403   3.560   0.303
 5132SOL    HW215396   5.283   3.502   0.208
 5133SOL     OW15397   4.534   2.467   1.463
 5133SOL    HW115398   4.501   2.435   1.552
 5133SOL    HW215399   4.492   2.412   1.391
 5134SOL     OW15400   5.127   2.373   1.690
 5134SOL    HW115401   5.114   2.415   1.780
 5134SOL    HW215402   5.186   2.292   1.699
 5135SOL     OW15403   4.701   2.737   1.562
 5135SOL    HW115404   4.755   2.661   1.525
 5135SOL    HW215405   4.645   2.777   1.489
 5136SOL     OW15406   4.727   2.236   1.232
 5136SOL    HW115407   4.639   2.280   1.253
 5136SOL    HW215408   4.720   2.187   1.146
 5137SOL     OW15409   4.766   2.550   0.379
 5137SOL    HW115410   4.780   2.556   0.477
 5137SOL    HW215411   4.683   2.497   0.360
 5138SOL     OW15412   3.810   2.657   0.777
 5138SOL    HW115413   3.891   2.644   0.834
 5138SOL    HW215414   3.753   2.731   0.814
 5139SOL     OW15415   3.861   3.679   1.566
 5139SOL    HW115416   3.871   3.670   1.665
 5139SOL    HW215417   3.796   3.753   1.546
 5140SOL     OW15418   4.585   2.180   0.175
 5140SOL    HW115419   4.636   2.243   0.116
 5140SOL    HW215420   4.603   2.086   0.147
 5141SOL     OW15421   5.437   2.481   1.810
 5141SOL    HW115422   5.397   2.565   1.774
 5141SOL    HW215423   5.448   2.416   1.734
 5142SOL     OW15424   5.087   3.023   0.563
 5142SOL    HW115425   5.175   3.001   0.521
 5142SOL    HW215426   5.026   3.061   0.494
 5143SOL     OW15427   4.269   2.020   0.910
 5143SOL    HW115428   4.281   2.064   0.999
 5143SOL    HW215429   4.261   2.089   0.839
 5144SOL     OW15430   4.738   3.315   0.454
 5144SOL    HW115431   4.683   3.389   0.416
 5144SOL    HW215432   4.778   3.344   0.541
 5145SOL     OW15433   4.065   3.662   0.855
 5145SOL    HW115434   4.119   3.578   0.858
 5145SOL    HW215435   4.124   3.740   0.874
 5146SOL     OW15436   5.533   2.935   0.889
 5146SOL    HW115437   5.467   2.943   0.814
 5146SOL    HW215438   5.484   2.916   0.974
 5147SOL     OW15439   4.986   3.400   1.533
 5147SOL    HW115440   4.999   3.304   1.557
 5147SOL    HW215441   4.891   3.416   1.509
 5148SOL     OW15442   3.979   2.796   0.219
 5148SOL    HW115443   4.073   2.829   0.222
 5148SOL    HW215444   3.977   2.703   0.183
 5149SOL     OW15445   5.175   2.597   0.725
 5149SOL    HW115446   5.174   2.538   0.806
 5149SOL    HW215447   5.260   2.648   0.722
 5150SOL     OW15448   4.163   3.135   1.760
 5150SOL    HW115449   4.151   3.149   1.661
 5150SOL    HW215450   4.073   3.127   1.803
 5151SOL     OW15451   4.879   3.617   0.237
 5151SOL    HW115452   4.801   3.582   0.289
 5151SOL    HW215453   4.892   3.562   0.154
 5152SOL     OW15454   3.931   2.129   1.510
 5152SOL    HW115455   3.855   2.182   1.472
 5152SOL    HW215456   3.921   2.124   1.610
 5153SOL     OW15457   5.354   3.250   0.100
 5153SOL    HW115458   5.306   3.330   0.065
 5153SOL    HW215459   5.353   3.178   0.031
 5154SOL     OW15460   4.214   3.608   0.303
 5154SOL    HW115461   4.251   3.665   0.376
 5154SOL    HW215462   4.290   3.575   0.246
 5155SOL     OW15463   5.111   2.007   0.430
 5155SOL    HW115464   5.109   1.970   0.337
 5155SOL    HW215465   5.203   1.996   0.467
 5156SOL     OW15466   3.984   3.669   1.181
 5156SOL    HW115467   4.009   3.587   1.233
 5156SOL    HW215468   3.970   3.643   1.085
 5157SOL     OW15469   4.667   3.578   0.905
 5157SOL    HW115470   4.712   3.511   0.964
 5157SOL    HW215471   4.623   3.531   0.828
 5158SOL     OW15472   4.093   2.539   0.454
 5158SOL    HW115473   4.117   2.444   0.473
 5158SOL    HW215474   3.997   2.556   0.477
 5159SOL     OW15475   5.252   2.097   1.744
 5159SOL    HW115476   5.263   2.130   1.838
 5159SOL    HW215477   5.166   2.046   1.736
 5160SOL     OW15478   4.361   1.954   0.088
 5160SOL    HW115479   4.461   1.953   0.086
 5160SOL    HW215480   4.327   2.028   0.031
 5161SOL     OW15481   4.480   2.138   1.751
 5161SOL    HW115482   4.570   2.096   1.761
 5161SOL    HW215483   4.423   2.114   1.830
 5162SOL     OW15484   4.637   3.394   1.187
 5162SOL    HW115485   4.599   3.342   1.110
 5162SOL    HW215486   4.716   3.345   1.224
 5163SOL     OW15487   5.062   2.467   1.449
 5163SOL    HW115488   5.101   2.441   1.538
 5163SOL    HW215489   5.099   2.556   1.422
 5164SOL     OW15490   4.498   3.250   0.907
 5164SOL    HW115491   4.585   3.284   0.872
 5164SOL    HW215492   4.437   3.227   0.831
 5165SOL     OW15493   4.645   2.366   0.899
 5165SOL    HW115494   4.602   2.340   0.813
 5165SOL    HW215495   4.676   2.284   0.947
 5166SOL     OW15496   4.301   1.931   0.481
 5166SOL    HW115497   4.224   1.924   0.544
 5166SOL    HW215498   4.292   2.015   0.427
 5167SOL     OW15499   5.059   3.071   5.994
 5167SOL    HW115500   5.131   3.012   0.031
 5167SOL    HW215501   4.994   3.092   0.066
 5168SOL     OW15502   4.669   2.096   0.439
 5168SOL    HW115503   4.628   2.143   0.361
 5168SOL    HW215504   4.765   2.122   0.447
 5169SOL     OW15505   4.804   2.525   1.428
 5169SOL    HW115506   4.731   2.458   1.440
 5169SOL    HW215507   4.893   2.479   1.432
 5170SOL     OW15508   4.940   3.434   0.809
 5170SOL    HW115509   4.991   3.462   0.728
 5170SOL    HW215510   4.999   3.440   0.890
 5171SOL     OW15511   4.162   3.020   0.745
 5171SOL    HW115512   4.090   2.987   0.806
 5171SOL    HW215513   4.125   3.029   0.652
 5172SOL     OW15514   5.025   3.681   0.586
 5172SOL    HW115515   5.049   3.753   0.521
 5172SOL    HW215516   4.978   3.721   0.665
 5173SOL     OW15517   4.736   2.392   0.048
 5173SOL    HW115518   4.663   2.439   5.997
 5173SOL    HW215519   4.784   2.459   0.105
 5174SOL     OW15520   3.800   2.401   1.423
 5174SOL    HW115521   3.885   2.383   1.372
 5174SOL    HW215522   3.811   2.484   1.478
 5175SOL     OW15523   4.279   2.097   1.187
 5175SOL    HW115524   4.339   2.029   1.230
 5175SOL    HW215525   4.184   2.078   1.212
 5176SOL     OW15526   4.579   2.274   0.652
 5176SOL    HW115527   4.532   2.333   0.586
 5176SOL    HW215528   4.632   2.204   0.603
 5177SOL     OW15529   4.686   1.938   0.741
 5177SOL    HW115530   4.644   1.903   0.657
 5177SOL    HW215531   4.719   1.862   0.796
 5178SOL     OW15532   5.140   3.024   0.857
 5178SOL    HW115533   5.084   2.954   0.900
 5178SOL    HW215534   5.117   3.030   0.759
 5179SOL     OW15535   5.207   2.433   0.931
 5179SOL    HW115536   5.138   2.361   0.940
 5179SOL    HW215537   5.263   2.435   1.014
 5180SOL     OW15538   5.631   2.687   0.368
 5180SOL    HW115539   5.675   2.628   0.435
 5180SOL    HW215540   5.584   2.630   0.300
 5181SOL     OW15541   4.202   3.249   0.192
 5181SOL    HW115542   4.110   3.238   0.229
 5181SOL    HW215543   4.205   3.214   0.098
 5182SOL     OW15544   5.428   3.150   0.690
 5182SOL    HW115545   5.516   3.166   0.645
 5182SOL    HW215546   5.366   3.226   0.669
 5183SOL     OW15547   5.105   2.480   0.090
 5183SOL    HW115548   5.041   2.438   0.153
 5183SOL    HW215549   5.173   2.413   0.060
 5184SOL     OW15550   4.246   2.132   0.307
 5184SOL    HW115551   4.302   2.082   0.241
 5184SOL    HW215552   4.224   2.223   0.271
 5185SOL     OW15553   5.469   3.143   1.581
 5185SOL    HW115554   5.546   3.084   1.556
 5185SOL    HW215555   5.504   3.230   1.618
 5186SOL     OW15556   4.787   3.204   1.359
 5186SOL    HW115557   4.696   3.186   1.396
 5186SOL    HW215558   4.857   3.160   1.416
 5187SOL     OW15559   5.339   3.522   1.651
 5187SOL    HW115560   5.328   3.534   1.553
 5187SOL    HW215561   5.419   3.465   1.669
 5188SOL     OW15562   4.771   3.039   1.120
 5188SOL    HW115563   4.768   3.105   1.195
 5188SOL    HW215564   4.758   3.087   1.033
 5189SOL     OW15565   5.361   2.939   1.105
 5189SOL    HW115566   5.354   3.015   1.169
 5189SOL    HW215567   5.299   2.954   1.028
 5190SOL     OW15568   4.639   1.938   1.413
 5190SOL    HW115569   4.657   1.911   1.318
 5190SOL    HW215570   4.718   1.988   1.449
 5191SOL     OW15571   4.699   2.962   1.710
 5191SOL    HW115572   4.602   2.966   1.731
 5191SOL    HW215573   4.716   2.889   1.644
 5192SOL     OW15574   4.406   2.915   0.398
 5192SOL    HW115575   4.383   2.897   0.494
 5192SOL    HW215576   4.494   2.873   0.376
 5193SOL     OW15577   4.129   2.647   1.259
 5193SOL    HW115578   4.201   2.662   1.326
 5193SOL    HW215579   4.086   2.558   1.275
 5194SOL     OW15580   5.015   2.272   1.272
 5194SOL    HW115581   5.035   2.348   1.334
 5194SOL    HW215582   4.921   2.278   1.241
 5195SOL     OW15583   3.788   3.407   1.349
 5195SOL    HW115584   3.738   3.476   1.298
 5195SOL    HW215585   3.883   3.435   1.359
 5196SOL     OW15586   4.084   3.016   0.489
 5196SOL    HW115587   4.077   3.081   0.414
 5196SOL    HW215588   4.124   2.931   0.456
 5197SOL     OW15589   4.303   2.390   0.865
 5197SOL    HW115590   4.289   2.464   0.799
 5197SOL    HW215591   4.373   2.417   0.931
 5198SOL     OW15592   4.983   3.216   0.375
 5198SOL    HW115593   5.022   3.299   0.415
 5198SOL    HW215594   4.886   3.211   0.397
 5199SOL     OW15595   5.048   3.304   1.140
 5199SOL    HW115596   5.104   3.328   1.219
 5199SOL    HW215597   4.991   3.224   1.162
 5200SOL     OW15598   5.335   2.486   0.491
 5200SOL    HW115599   5.241   2.491   0.527
 5200SOL    HW215600   5.350   2.561   0.427
 5201SOL     OW15601   4.065   3.395   1.296
 5201SOL    HW115602   4.069   3.345   1.210
 5201SOL    HW215603   4.158   3.419   1.326
 5202SOL     OW15604   4.119   2.588   1.584
 5202SOL    HW115605   4.170   2.651   1.526
 5202SOL    HW215606   4.184   2.527   1.631
 5203SOL     OW15607   5.343   2.686   1.671
 5203SOL    HW115608   5.245   2.705   1.670
 5203SOL    HW215609   5.386   2.725   1.589
 5204SOL     OW15610   4.730   1.999   1.783
 5204SOL    HW115611   4.804   2.047   1.736
 5204SOL    HW215612   4.717   1.909   1.742
 5205SOL     OW15613   4.169   1.882   1.736
 5205SOL    HW115614   4.134   1.828   1.660
 5205SOL    HW215615   4.100   1.949   1.764
 5206SOL     OW15616   4.288   2.701   1.019
 5206SOL    HW115617   4.320   2.795   1.012
 5206SOL    HW215618   4.229   2.691   1.100
 5207SOL     OW15619   5.047   2.709   1.059
 5207SOL    HW115620   4.959   2.704   1.011
 5207SOL    HW215621   5.092   2.620   1.054
 5208SOL     OW15622   4.940   2.373   0.262
 5208SOL    HW115623   4.945   2.294   0.323
 5208SOL    HW215624   4.881   2.443   0.303
 5209SOL     OW15625   4.021   2.057   1.246
 5209SOL    HW115626   3.988   2.069   1.340
 5209SOL    HW215627   4.004   1.963   1.217
 5210SOL     OW15628   3.796   3.144   1.284
 5210SOL    HW115629   3.840   3.088   1.353
 5210SOL    HW215630   3.806   3.241   1.308
 5211SOL     OW15631   4.487   2.493   1.069
 5211SOL    HW115632   4.549   2.457   1.000
 5211SOL    HW215633   4.442   2.576   1.034
 5212SOL     OW15634   5.504   2.817   1.833
 5212SOL    HW115635   5.443   2.763   1.776
 5212SOL    HW215636   5.462   2.832   1.923
 5213SOL     OW15637   4.082   1.921   0.616
 5213SOL    HW115638   4.039   2.009   0.634
 5213SOL    HW215639   4.069   1.860   0.694
 5214SOL     OW15640   5.392   2.246   0.358
 5214SOL    HW115641   5.415   2.169   0.416
 5214SOL    HW215642   5.370   2.326   0.415
 5215SOL     OW15643   4.764   2.638   0.957
 5215SOL    HW115644   4.758   2.654   1.056
 5215SOL    HW215645   4.716   2.553   0.935
 5216SOL     OW15646   4.718   3.433   1.722
 5216SOL    HW115647   4.677   3.473   1.641
 5216SOL    HW215648   4.755   3.343   1.700
 5217SOL     OW15649   5.597   3.375   1.631
 5217SOL    HW115650   5.614   3.367   1.533
 5217SOL    HW215651   5.682   3.401   1.678
 5218SOL     OW15652   4.070   2.804   1.776
 5218SOL    HW115653   4.121   2.798   1.862
 5218SOL    HW215654   4.093   2.726   1.718
 5219SOL     OW15655   5.204   2.141   0.170
 5219SOL    HW115656   5.192   2.041   0.171
 5219SOL    HW215657   5.273   2.167   0.238
 5220SOL     OW15658   5.064   2.728   0.039
 5220SOL    HW115659   5.078   2.631   0.058
 5220SOL    HW215660   5.023   2.739   5.949
 5221SOL     OW15661   4.788   3.225   0.895
 5221SOL    HW115662   4.787   3.152   0.826
 5221SOL    HW215663   4.840   3.303   0.861
 5222SOL     OW15664   4.024   2.641   0.962
 5222SOL    HW115665   4.115   2.671   0.934
 5222SOL    HW215666   4.026   2.544   0.986
 5223SOL     OW15667   4.054   2.377   0.999
 5223SOL    HW115668   4.020   2.284   0.986
 5223SOL    HW215669   4.136   2.391   0.943
 5224SOL     OW15670   4.912   2.214   1.694
 5224SOL    HW115671   4.834   2.263   1.734
 5224SOL    HW215672   4.986   2.279   1.676
 5225SOL     OW15673   4.875   2.050   1.491
 5225SOL    HW115674   4.887   2.116   1.565
 5225SOL    HW215675   4.909   2.089   1.406
 5226SOL     OW15676   3.812   3.646   0.938
 5226SOL    HW115677   3.777   3.558   0.906
 5226SOL    HW215678   3.900   3.665   0.894
 5227SOL     OW15679   4.212   3.451   0.882
 5227SOL    HW115680   4.289   3.507   0.915
 5227SOL    HW215681   4.247   3.375   0.828
 5228SOL     OW15682   4.712   2.663   1.209
 5228SOL    HW115683   4.758   2.656   1.297
 5228SOL    HW215684   4.646   2.588   1.199
 5229SOL     OW15685   3.766   2.420   1.129
 5229SOL    HW115686   3.845   2.435   1.070
 5229SOL    HW215687   3.797   2.394   1.220
 5230SOL     OW15688   3.956   2.383   1.732
 5230SOL    HW115689   4.026   2.364   1.663
 5230SOL    HW215690   3.901   2.461   1.703
 5231SOL     OW15691   5.098   2.783   1.652
 5231SOL    HW115692   5.119   2.881   1.656
 5231SOL    HW215693   5.088   2.755   1.557
 5232SOL     OW15694   4.547   2.432   0.313
 5232SOL    HW115695   4.532   2.347   0.262
 5232SOL    HW215696   4.464   2.487   0.312
 5233SOL     OW15697   5.355   2.428   1.165
 5233SOL    HW115698   5.346   2.386   1.255
 5233SOL    HW215699   5.446   2.411   1.128
 5234SOL     OW15700   3.959   3.393   1.729
 5234SOL    HW115701   3.951   3.466   1.797
 5234SOL    HW215702   3.947   3.304   1.774
 5235SOL     OW15703   4.433   2.321   1.263
 5235SOL    HW115704   4.377   2.241   1.244
 5235SOL    HW215705   4.431   2.382   1.184
 5236SOL     OW15706   4.631   3.521   1.485
 5236SOL    HW115707   4.633   3.471   1.398
 5236SOL    HW215708   4.620   3.619   1.467
 5237SOL     OW15709   4.185   2.357   0.199
 5237SOL    HW115710   4.245   2.428   0.235
 5237SOL    HW215711   4.091   2.392   0.193
 5238SOL     OW15712   3.912   2.989   1.461
 5238SOL    HW115713   3.888   2.954   1.551
 5238SOL    HW215714   3.905   2.916   1.393
 5239SOL     OW15715   5.040   2.933   1.218
 5239SOL    HW115716   5.068   2.868   1.147
 5239SOL    HW215717   4.941   2.941   1.219
 5240SOL     OW15718   5.052   2.695   0.341
 5240SOL    HW115719   4.954   2.705   0.362
 5240SOL    HW215720   5.062   2.635   0.262
 5241SOL     OW15721   5.534   3.556   1.156
 5241SOL    HW115722   5.598   3.589   1.086
 5241SOL    HW215723   5.485   3.477   1.122
 5242SOL     OW15724   4.935   3.561   1.137
 5242SOL    HW115725   5.008   3.626   1.116
 5242SOL    HW215726   4.971   3.468   1.129
 5243SOL     OW15727   3.844   3.130   1.025
 5243SOL    HW115728   3.826   3.126   1.124
 5243SOL    HW215729   3.769   3.085   0.976
 5244SOL     OW15730   4.437   3.538   1.734
 5244SOL    HW115731   4.340   3.559   1.728
 5244SOL    HW215732   4.478   3.544   1.642
 5245SOL     OW15733   4.657   1.934   0.118
 5245SOL    HW115734   4.724   1.960   0.049
 5245SOL    HW215735   4.705   1.907   0.202
 5246SOL     OW15736   5.478   2.012   0.505
 5246SOL    HW115737   5.560   1.993   0.449
 5246SOL    HW215738   5.442   1.927   0.541
 5247SOL     OW15739   5.084   3.461   0.449
 5247SOL    HW115740   5.165   3.474   0.393
 5247SOL    HW215741   5.056   3.549   0.487
 5248SOL     OW15742   3.877   3.659   1.836
 5248SOL    HW115743   3.793   3.608   1.855
 5248SOL    HW215744   3.909   3.701   1.921
 5249SOL     OW15745   5.002   2.781   0.655
 5249SOL    HW115746   5.074   2.717   0.683
 5249SOL    HW215747   5.042   2.856   0.603
 5250SOL     OW15748   4.498   3.105   1.404
 5250SOL    HW115749   4.480   3.171   1.477
 5250SOL    HW215750   4.435   3.123   1.328
 5251SOL     OW15751   4.402   3.465   0.149
 5251SOL    HW115752   4.416   3.442   0.052
 5251SOL    HW215753   4.347   3.393   0.192
 5252SOL     OW15754   5.347   3.593   1.378
 5252SOL    HW115755   5.405   3.595   1.297
 5252SOL    HW215756   5.332   3.686   1.411
 5253SOL     OW15757   5.588   2.034   0.937
 5253SOL    HW115758   5.618   1.939   0.930
 5253SOL    HW215759   5.496   2.043   0.900
 5254SOL     OW15760   3.992   2.156   0.691
 5254SOL    HW115761   3.905   2.196   0.664
 5254SOL    HW215762   3.997   2.154   0.791
 5255SOL     OW15763   4.960   3.446   0.026
 5255SOL    HW115764   4.926   3.361   0.066
 5255SOL    HW215765   4.904   3.471   5.947
 5256SOL     OW15766   4.550   2.852   1.365
 5256SOL    HW115767   4.605   2.844   1.281
 5256SOL    HW215768   4.529   2.949   1.381
 5257SOL     OW15769   4.614   2.768   0.280
 5257SOL    HW115770   4.687   2.803   0.221
 5257SOL    HW215771   4.637   2.676   0.311
 5258SOL     OW15772   5.217   3.493   0.049
 5258SOL    HW115773   5.120   3.471   0.065
 5258SOL    HW215774   5.233   3.508   5.952
 5259SOL     OW15775   4.074   3.183   1.520
 5259SOL    HW115776   4.061   3.258   1.456
 5259SOL    HW215777   4.009   3.110   1.499
 5260SOL     OW15778   5.336   3.143   1.293
 5260SOL    HW115779   5.393   3.125   1.374
 5260SOL    HW215780   5.273   3.217   1.313
 5261SOL     OW15781   4.745   3.015   0.711
 5261SOL    HW115782   4.700   2.937   0.754
 5261SOL    HW215783   4.804   2.983   0.637
 5262SOL     OW15784   4.707   2.106   0.987
 5262SOL    HW115785   4.686   2.082   0.892
 5262SOL    HW215786   4.712   2.022   1.042
 5263SOL     OW15787   4.345   3.334   0.441
 5263SOL    HW115788   4.397   3.275   0.379
 5263SOL    HW215789   4.264   3.368   0.394
 5264SOL     OW15790   5.432   2.253   1.372
 5264SOL    HW115791   5.507   2.315   1.394
 5264SOL    HW215792   5.466   2.178   1.315
 5265SOL     OW15793   3.959   3.207   0.295
 5265SOL    HW115794   3.879   3.148   0.287
 5265SOL    HW215795   3.960   3.250   0.386
 5266SOL     OW15796   3.842   2.923   1.709
 5266SOL    HW115797   3.764   2.887   1.759
 5266SOL    HW215798   3.926   2.879   1.741
 5267SOL     OW15799   4.404   2.065   1.481
 5267SOL    HW115800   4.490   2.029   1.446
 5267SOL    HW215801   4.420   2.114   1.567
 5268SOL     OW15802   3.839   2.244   0.030
 5268SOL    HW115803   3.828   2.147   0.008
 5268SOL    HW215804   3.856   2.295   5.945
 5269SOL     OW15805   5.156   2.722   1.388
 5269SOL    HW115806   5.104   2.785   1.330
 5269SOL    HW215807   5.254   2.732   1.369
 5270SOL     OW15808   3.805   1.995   0.321
 5270SOL    HW115809   3.744   2.030   0.250
 5270SOL    HW215810   3.896   1.979   0.282
 5271SOL     OW15811   4.851   3.224   0.139
 5271SOL    HW115812   4.779   3.156   0.153
 5271SOL    HW215813   4.919   3.216   0.212
 5272SOL     OW15814   4.345   2.661   1.440
 5272SOL    HW115815   4.398   2.740   1.410
 5272SOL    HW215816   4.407   2.586   1.463
 5273SOL     OW15817   5.209   3.644   0.989
 5273SOL    HW115818   5.196   3.726   0.933
 5273SOL    HW215819   5.305   3.617   0.986
 5274SOL     OW15820   4.452   2.415   1.709
 5274SOL    HW115821   4.466   2.478   1.786
 5274SOL    HW215822   4.470   2.321   1.738
 5275SOL     OW15823   5.199   3.071   1.638
 5275SOL    HW115824   5.182   3.074   1.737
 5275SOL    HW215825   5.291   3.104   1.619
 5276SOL     OW15826   4.100   3.579   1.544
 5276SOL    HW115827   4.013   3.628   1.534
 5276SOL    HW215828   4.083   3.490   1.588
 5277SOL     OW15829   5.429   2.705   1.239
 5277SOL    HW115830   5.397   2.630   1.181
 5277SOL    HW215831   5.413   2.792   1.193
 5278SOL     OW15832   4.921   2.181   0.443
 5278SOL    HW115833   4.992   2.113   0.424
 5278SOL    HW215834   4.942   2.229   0.528
 5279SOL     OW15835   4.246   2.591   0.690
 5279SOL    HW115836   4.305   2.672   0.679
 5279SOL    HW215837   4.192   2.578   0.607
 5280SOL     OW15838   5.477   2.231   1.653
 5280SOL    HW115839   5.468   2.221   1.554
 5280SOL    HW215840   5.406   2.178   1.699
 5281SOL     OW15841   5.462   2.812   1.472
 5281SOL    HW115842   5.492   2.906   1.454
 5281SOL    HW215843   5.456   2.762   1.386
 5282SOL     OW15844   4.548   3.273   0.001
 5282SOL    HW115845   4.570   3.233   0.090
 5282SOL    HW215846   4.611   3.348   5.981
 5283SOL     OW15847   4.401   3.662   0.940
 5283SOL    HW115848   4.353   3.750   0.946
 5283SOL    HW215849   4.490   3.675   0.897
 5284SOL     OW15850   4.587   2.829   0.878
 5284SOL    HW115851   4.661   2.767   0.902
 5284SOL    HW215852   4.560   2.881   0.959
 5285SOL     OW15853   4.818   2.859   0.089
 5285SOL    HW115854   4.755   2.833   0.015
 5285SOL    HW215855   4.907   2.817   0.074
 5286SOL     OW15856   5.547   3.425   0.841
 5286SOL    HW115857   5.464   3.394   0.796
 5286SOL    HW215858   5.574   3.359   0.912
 5287SOL     OW15859   3.915   3.136   1.872
 5287SOL    HW115860   3.881   3.049   1.835
 5287SOL    HW215861   3.905   3.135   1.972
 5288SOL     OW15862   3.833   3.083   0.635
 5288SOL    HW115863   3.843   3.050   0.729
 5288SOL    HW215864   3.906   3.044   0.579
 5289SOL     OW15865   4.447   3.271   1.605
 5289SOL    HW115866   4.357   3.249   1.643
 5289SOL    HW215867   4.493   3.337   1.665
 5290SOL     OW15868   5.517   2.042   1.222
 5290SOL    HW115869   5.554   1.953   1.249
 5290SOL    HW215870   5.541   2.059   1.126
 5291SOL     OW15871   4.152   2.294   0.529
 5291SOL    HW115872   4.186   2.221   0.469
 5291SOL    HW215873   4.086   2.256   0.593
 5292SOL     OW15874   5.420   3.315   1.098
 5292SOL    HW115875   5.344   3.306   1.032
 5292SOL    HW215876   5.406   3.251   1.173
 5293SOL     OW15877   4.031   2.403   1.274
 5293SOL    HW115878   4.098   2.363   1.335
 5293SOL    HW215879   4.051   2.376   1.180
 5294SOL     OW15880   4.532   3.427   0.683
 5294SOL    HW115881   4.534   3.455   0.587
 5294SOL    HW215882   4.444   3.386   0.705
 5295SOL     OW15883   5.135   2.085   1.119
 5295SOL    HW115884   5.219   2.048   1.160
 5295SOL    HW215885   5.089   2.145   1.185
 5296SOL     OW15886   4.713   1.887   1.160
 5296SOL    HW115887   4.653   1.831   1.103
 5296SOL    HW215888   4.799   1.839   1.176
 5297SOL     OW15889   4.531   3.155   0.303
 5297SOL    HW115890   4.465   3.090   0.340
 5297SOL    HW215891   4.593   3.184   0.376
 5298SOL     OW15892   4.360   3.414   1.271
 5298SOL    HW115893   4.350   3.492   1.331
 5298SOL    HW215894   4.454   3.409   1.238
 5299SOL     OW15895   5.112   1.892   0.175
 5299SOL    HW115896   5.138   1.860   0.084
 5299SOL    HW215897   5.035   1.837   0.209
 5300SOL     OW15898   4.998   2.295   0.680
 5300SOL    HW115899   4.969   2.391   0.673
 5300SOL    HW215900   5.024   2.275   0.774
 5301SOL     OW15901   5.316   2.032   0.869
 5301SOL    HW115902   5.282   2.064   0.958
 5301SOL    HW215903   5.326   2.109   0.807
 5302SOL     OW15904   3.762   3.003   0.318
 5302SOL    HW115905   3.833   2.958   0.265
 5302SOL    HW215906   3.733   2.943   0.393
 5303SOL     OW15907   4.617   3.529   0.352
 5303SOL    HW115908   4.551   3.521   0.278
 5303SOL    HW215909   4.595   3.609   0.409
 5304SOL     OW15910   3.975   2.504   1.999
 5304SOL    HW115911   3.888   2.527   2.042
 5304SOL    HW215912   3.959   2.467   1.908
 5305SOL     OW15913   3.974   2.132   2.826
 5305SOL    HW115914   4.012   2.099   2.913
 5305SOL    HW215915   3.879   2.104   2.819
 5306SOL     OW15916   3.748   2.251   2.494
 5306SOL    HW115917   3.672   2.278   2.553
 5306SOL    HW215918   3.717   2.183   2.428
 5307SOL     OW15919   4.249   3.145   3.029
 5307SOL    HW115920   4.174   3.156   2.964
 5307SOL    HW215921   4.265   3.232   3.077
 5308SOL     OW15922   5.280   3.381   2.565
 5308SOL    HW115923   5.238   3.349   2.651
 5308SOL    HW215924   5.208   3.398   2.498
 5309SOL     OW15925   4.847   2.562   2.499
 5309SOL    HW115926   4.892   2.650   2.510
 5309SOL    HW215927   4.785   2.547   2.576
 5310SOL     OW15928   5.435   2.516   2.070
 5310SOL    HW115929   5.443   2.505   1.971
 5310SOL    HW215930   5.428   2.426   2.114
 5311SOL     OW15931   4.470   3.026   2.913
 5311SOL    HW115932   4.381   3.046   2.953
 5311SOL    HW215933   4.503   3.107   2.863
 5312SOL     OW15934   4.561   2.677   3.663
 5312SOL    HW115935   4.562   2.768   3.704
 5312SOL    HW215936   4.583   2.683   3.566
 5313SOL     OW15937   4.392   2.848   2.556
 5313SOL    HW115938   4.465   2.850   2.624
 5313SOL    HW215939   4.323   2.916   2.579
 5314SOL     OW15940   4.423   3.012   3.665
 5314SOL    HW115941   4.473   3.098   3.668
 5314SOL    HW215942   4.326   3.030   3.648
 5315SOL     OW15943   4.067   3.293   2.892
 5315SOL    HW115944   3.974   3.280   2.860
 5315SOL    HW215945   4.112   3.363   2.835
 5316SOL     OW15946   5.191   3.379   3.215
 5316SOL    HW115947   5.252   3.458   3.225
 5316SOL    HW215948   5.114   3.388   3.278
 5317SOL     OW15949   4.166   2.298   3.327
 5317SOL    HW115950   4.245   2.238   3.315
 5317SOL    HW215951   4.087   2.244   3.357
 5318SOL     OW15952   5.361   2.322   2.633
 5318SOL    HW115953   5.317   2.355   2.550
 5318SOL    HW215954   5.372   2.398   2.698
 5319SOL     OW15955   3.955   3.567   2.361
 5319SOL    HW115956   3.989   3.654   2.396
 5319SOL    HW215957   4.004   3.542   2.277
 5320SOL     OW15958   4.833   3.201   3.558
 5320SOL    HW115959   4.888   3.203   3.641
 5320SOL    HW215960   4.780   3.116   3.554
 5321SOL     OW15961   3.989   3.293   2.409
 5321SOL    HW115962   3.958   3.388   2.412
 5321SOL    HW215963   3.920   3.234   2.450
 5322SOL     OW15964   3.963   2.955   2.733
 5322SOL    HW115965   3.965   2.860   2.765
 5322SOL    HW215966   3.927   3.014   2.805
 5323SOL     OW15967   4.348   3.625   3.310
 5323SOL    HW115968   4.259   3.599   3.347
 5323SOL    HW215969   4.365   3.722   3.330
 5324SOL     OW15970   4.318   2.811   2.022
 5324SOL    HW115971   4.334   2.869   1.942
 5324SOL    HW215972   4.375   2.842   2.098
 5325SOL     OW15973   5.344   1.997   3.331
 5325SOL    HW115974   5.314   2.079   3.281
 5325SOL    HW215975   5.319   2.006   3.427
 5326SOL     OW15976   3.842   2.506   2.412
 5326SOL    HW115977   3.820   2.412   2.439
 5326SOL    HW215978   3.837   2.565   2.493
 5327SOL     OW15979   5.567   3.596   2.188
 5327SOL    HW115980   5.642   3.552   2.239
 5327SOL    HW215981   5.580   3.695   2.190
 5328SOL     OW15982   3.715   3.474   1.972
 5328SOL    HW115983   3.710   3.377   1.995
 5328SOL    HW215984   3.728   3.528   2.055
 5329SOL     OW15985   5.399   2.796   2.513
 5329SOL    HW115986   5.477   2.745   2.477
 5329SOL    HW215987   5.371   2.864   2.446
 5330SOL     OW15988   5.362   3.021   2.341
 5330SOL    HW115989   5.447   2.994   2.296
 5330SOL    HW215990   5.383   3.061   2.430
 5331SOL     OW15991   3.855   2.599   3.450
 5331SOL    HW115992   3.955   2.592   3.446
 5331SOL    HW215993   3.828   2.695   3.446
 5332SOL     OW15994   4.313   3.248   2.577
 5332SOL    HW115995   4.259   3.165   2.587
 5332SOL    HW215996   4.315   3.274   2.480
 5333SOL     OW15997   5.019   3.082   3.304
 5333SOL    HW115998   5.045   3.035   3.220
 5333SOL    HW215999   5.087   3.064   3.375
 5334SOL     OW16000   4.543   1.842   2.331
 5334SOL    HW116001   4.591   1.929   2.335
 5334SOL    HW216002   4.445   1.856   2.345
 5335SOL     OW16003   3.901   2.816   3.126
 5335SOL    HW116004   3.985   2.773   3.093
 5335SOL    HW216005   3.823   2.755   3.109
 5336SOL     OW16006   5.260   2.839   2.043
 5336SOL    HW116007   5.192   2.793   2.099
 5336SOL    HW216008   5.317   2.898   2.101
 5337SOL     OW16009   4.931   3.674   3.482
 5337SOL    HW116010   4.902   3.727   3.403
 5337SOL    HW216011   4.960   3.583   3.453
 5338SOL     OW16012   4.022   2.103   3.689
 5338SOL    HW116013   4.062   2.194   3.678
 5338SOL    HW216014   3.930   2.111   3.726
 5339SOL     OW16015   5.196   3.281   2.795
 5339SOL    HW116016   5.134   3.300   2.871
 5339SOL    HW216017   5.204   3.182   2.783
 5340SOL     OW16018   5.374   3.617   2.454
 5340SOL    HW116019   5.341   3.590   2.363
 5340SOL    HW216020   5.372   3.538   2.514
 5341SOL     OW16021   4.342   2.559   2.156
 5341SOL    HW116022   4.341   2.637   2.094
 5341SOL    HW216023   4.269   2.570   2.224
 5342SOL     OW16024   5.027   2.243   2.793
 5342SOL    HW116025   4.932   2.212   2.790
 5342SOL    HW216026   5.078   2.189   2.861
 5343SOL     OW16027   5.306   3.538   2.188
 5343SOL    HW116028   5.404   3.558   2.197
 5343SOL    HW216029   5.284   3.524   2.092
 5344SOL     OW16030   4.535   2.463   3.325
 5344SOL    HW116031   4.496   2.434   3.413
 5344SOL    HW216032   4.490   2.412   3.251
 5345SOL     OW16033   5.127   2.372   3.553
 5345SOL    HW116034   5.114   2.415   3.642
 5345SOL    HW216035   5.182   2.289   3.563
 5346SOL     OW16036   4.704   2.733   3.427
 5346SOL    HW116037   4.762   2.662   3.388
 5346SOL    HW216038   4.649   2.775   3.355
 5347SOL     OW16039   4.718   2.230   3.101
 5347SOL    HW116040   4.637   2.285   3.121
 5347SOL    HW216041   4.710   2.190   3.009
 5348SOL     OW16042   4.777   2.537   2.228
 5348SOL    HW116043   4.787   2.561   2.325
 5348SOL    HW216044   4.691   2.488   2.215
 5349SOL     OW16045   3.821   2.678   2.630
 5349SOL    HW116046   3.899   2.656   2.689
 5349SOL    HW216047   3.766   2.749   2.674
 5350SOL     OW16048   3.863   3.678   3.434
 5350SOL    HW116049   3.863   3.663   3.533
 5350SOL    HW216050   3.802   3.754   3.411
 5351SOL     OW16051   4.595   2.196   2.017
 5351SOL    HW116052   4.642   2.253   1.950
 5351SOL    HW216053   4.629   2.102   2.010
 5352SOL     OW16054   5.429   2.473   3.680
 5352SOL    HW116055   5.386   2.555   3.639
 5352SOL    HW216056   5.448   2.407   3.608
 5353SOL     OW16057   5.106   3.024   2.425
 5353SOL    HW116058   5.190   3.011   2.371
 5353SOL    HW216059   5.037   3.069   2.368
 5354SOL     OW16060   4.249   2.025   2.784
 5354SOL    HW116061   4.272   2.057   2.875
 5354SOL    HW216062   4.234   2.103   2.723
 5355SOL     OW16063   4.753   3.344   2.315
 5355SOL    HW116064   4.688   3.401   2.264
 5355SOL    HW216065   4.784   3.393   2.396
 5356SOL     OW16066   4.068   3.658   2.714
 5356SOL    HW116067   4.123   3.575   2.722
 5356SOL    HW216068   4.124   3.737   2.739
 5357SOL     OW16069   5.534   2.934   2.753
 5357SOL    HW116070   5.462   2.931   2.684
 5357SOL    HW216071   5.492   2.931   2.844
 5358SOL     OW16072   4.986   3.410   3.395
 5358SOL    HW116073   5.004   3.314   3.415
 5358SOL    HW216074   4.888   3.423   3.382
 5359SOL     OW16075   4.036   2.853   2.098
 5359SOL    HW116076   4.136   2.854   2.089
 5359SOL    HW216077   4.004   2.759   2.093
 5360SOL     OW16078   5.181   2.607   2.583
 5360SOL    HW116079   5.170   2.551   2.665
 5360SOL    HW216080   5.267   2.659   2.589
 5361SOL     OW16081   4.169   3.138   3.630
 5361SOL    HW116082   4.149   3.155   3.534
 5361SOL    HW216083   4.084   3.125   3.680
 5362SOL     OW16084   4.897   3.619   2.089
 5362SOL    HW116085   4.807   3.591   2.123
 5362SOL    HW216086   4.913   3.576   2.000
 5363SOL     OW16087   3.928   2.121   3.376
 5363SOL    HW116088   3.846   2.167   3.343
 5363SOL    HW216089   3.925   2.116   3.476
 5364SOL     OW16090   5.335   3.225   1.989
 5364SOL    HW116091   5.311   3.318   1.961
 5364SOL    HW216092   5.269   3.160   1.950
 5365SOL     OW16093   4.197   3.583   2.208
 5365SOL    HW116094   4.231   3.662   2.258
 5365SOL    HW216095   4.264   3.555   2.139
 5366SOL     OW16096   5.092   1.990   2.275
 5366SOL    HW116097   5.091   1.968   2.178
 5366SOL    HW216098   5.186   1.998   2.307
 5367SOL     OW16099   4.001   3.678   3.052
 5367SOL    HW116100   4.010   3.590   3.099
 5367SOL    HW216101   3.984   3.662   2.955
 5368SOL     OW16102   4.660   3.577   2.762
 5368SOL    HW116103   4.712   3.513   2.819
 5368SOL    HW216104   4.615   3.527   2.688
 5369SOL     OW16105   4.111   2.553   2.323
 5369SOL    HW116106   4.122   2.455   2.341
 5369SOL    HW216107   4.017   2.580   2.341
 5370SOL     OW16108   5.248   2.107   3.602
 5370SOL    HW116109   5.265   2.138   3.695
 5370SOL    HW216110   5.171   2.042   3.602
 5371SOL     OW16111   4.329   1.954   1.926
 5371SOL    HW116112   4.417   1.910   1.915
 5371SOL    HW216113   4.269   1.932   1.849
 5372SOL     OW16114   4.479   2.139   3.615
 5372SOL    HW116115   4.569   2.096   3.622
 5372SOL    HW216116   4.423   2.113   3.694
 5373SOL     OW16117   4.636   3.395   3.055
 5373SOL    HW116118   4.595   3.348   2.977
 5373SOL    HW216119   4.707   3.338   3.095
 5374SOL     OW16120   5.058   2.459   3.313
 5374SOL    HW116121   5.096   2.431   3.401
 5374SOL    HW216122   5.096   2.548   3.286
 5375SOL     OW16123   4.499   3.249   2.773
 5375SOL    HW116124   4.589   3.275   2.739
 5375SOL    HW216125   4.439   3.228   2.695
 5376SOL     OW16126   4.651   2.371   2.770
 5376SOL    HW116127   4.604   2.353   2.684
 5376SOL    HW216128   4.681   2.284   2.810
 5377SOL     OW16129   4.294   1.929   2.340
 5377SOL    HW116130   4.214   1.926   2.400
 5377SOL    HW216131   4.298   2.018   2.295
 5378SOL     OW16132   5.145   3.047   1.892
 5378SOL    HW116133   5.172   2.956   1.922
 5378SOL    HW216134   5.075   3.083   1.954
 5379SOL     OW16135   4.011   1.907   2.062
 5379SOL    HW116136   4.065   1.965   2.000
 5379SOL    HW216137   4.073   1.846   2.112
 5380SOL     OW16138   4.661   2.084   2.336
 5380SOL    HW116139   4.613   2.135   2.265
 5380SOL    HW216140   4.756   2.114   2.340
 5381SOL     OW16141   4.805   2.522   3.288
 5381SOL    HW116142   4.731   2.456   3.299
 5381SOL    HW216143   4.893   2.475   3.298
 5382SOL     OW16144   4.928   3.416   2.658
 5382SOL    HW116145   4.962   3.462   2.576
 5382SOL    HW216146   5.000   3.417   2.728
 5383SOL     OW16147   4.182   3.007   2.596
 5383SOL    HW116148   4.103   2.979   2.651
 5383SOL    HW216149   4.158   3.003   2.499
 5384SOL     OW16150   5.025   3.654   2.439
 5384SOL    HW116151   5.046   3.722   2.369
 5384SOL    HW216152   4.981   3.698   2.516
 5385SOL     OW16153   4.743   2.375   1.818
 5385SOL    HW116154   4.691   2.460   1.812
 5385SOL    HW216155   4.808   2.381   1.893
 5386SOL     OW16156   3.802   2.400   3.284
 5386SOL    HW116157   3.884   2.387   3.228
 5386SOL    HW216158   3.814   2.482   3.341
 5387SOL     OW16159   4.280   2.091   3.051
 5387SOL    HW116160   4.337   2.026   3.102
 5387SOL    HW216161   4.185   2.080   3.079
 5388SOL     OW16162   4.568   2.279   2.524
 5388SOL    HW116163   4.527   2.331   2.450
 5388SOL    HW216164   4.618   2.201   2.487
 5389SOL     OW16165   4.693   1.934   2.607
 5389SOL    HW116166   4.664   1.902   2.518
 5389SOL    HW216167   4.717   1.856   2.665
 5390SOL     OW16168   5.175   2.993   2.755
 5390SOL    HW116169   5.086   2.952   2.774
 5390SOL    HW216170   5.194   2.989   2.657
 5391SOL     OW16171   5.188   2.474   2.818
 5391SOL    HW116172   5.132   2.392   2.807
 5391SOL    HW216173   5.261   2.457   2.884
 5392SOL     OW16174   5.566   2.690   2.228
 5392SOL    HW116175   5.632   2.640   2.285
 5392SOL    HW216176   5.528   2.627   2.160
 5393SOL     OW16177   4.217   3.270   2.055
 5393SOL    HW116178   4.124   3.255   2.090
 5393SOL    HW216179   4.220   3.247   1.958
 5394SOL     OW16180   5.423   3.159   2.573
 5394SOL    HW116181   5.511   3.175   2.529
 5394SOL    HW216182   5.362   3.236   2.554
 5395SOL     OW16183   5.095   2.448   1.946
 5395SOL    HW116184   5.028   2.403   2.005
 5395SOL    HW216185   5.187   2.435   1.983
 5396SOL     OW16186   4.262   2.140   2.184
 5396SOL    HW116187   4.274   2.068   2.115
 5396SOL    HW216188   4.241   2.226   2.139
 5397SOL     OW16189   5.466   3.131   3.435
 5397SOL    HW116190   5.552   3.082   3.418
 5397SOL    HW216191   5.484   3.213   3.488
 5398SOL     OW16192   4.781   3.206   3.225
 5398SOL    HW116193   4.688   3.186   3.256
 5398SOL    HW216194   4.847   3.160   3.285
 5399SOL     OW16195   5.334   3.525   3.513
 5399SOL    HW116196   5.321   3.539   3.415
 5399SOL    HW216197   5.414   3.467   3.527
 5400SOL     OW16198   4.774   3.038   2.983
 5400SOL    HW116199   4.773   3.100   3.061
 5400SOL    HW216200   4.758   3.089   2.899
 5401SOL     OW16201   5.363   2.944   2.961
 5401SOL    HW116202   5.363   3.019   3.027
 5401SOL    HW216203   5.290   2.959   2.894
 5402SOL     OW16204   4.636   1.947   3.273
 5402SOL    HW116205   4.655   1.926   3.177
 5402SOL    HW216206   4.711   2.000   3.311
 5403SOL     OW16207   4.695   2.961   3.573
 5403SOL    HW116208   4.597   2.961   3.594
 5403SOL    HW216209   4.715   2.888   3.508
 5404SOL     OW16210   4.445   2.934   2.265
 5404SOL    HW116211   4.427   2.912   2.361
 5404SOL    HW216212   4.525   2.882   2.234
 5405SOL     OW16213   4.136   2.668   3.110
 5405SOL    HW116214   4.204   2.678   3.183
 5405SOL    HW216215   4.095   2.577   3.114
 5406SOL     OW16216   5.017   2.274   3.126
 5406SOL    HW116217   5.037   2.348   3.190
 5406SOL    HW216218   4.919   2.272   3.105
 5407SOL     OW16219   3.794   3.409   3.215
 5407SOL    HW116220   3.742   3.470   3.156
 5407SOL    HW216221   3.891   3.436   3.213
 5408SOL     OW16222   4.109   3.000   2.342
 5408SOL    HW116223   4.111   3.076   2.277
 5408SOL    HW216224   4.116   2.913   2.292
 5409SOL     OW16225   4.304   2.386   2.729
 5409SOL    HW116226   4.295   2.458   2.661
 5409SOL    HW216227   4.367   2.416   2.801
 5410SOL     OW16228   4.990   3.208   2.237
 5410SOL    HW116229   5.042   3.279   2.283
 5410SOL    HW216230   4.893   3.219   2.256
 5411SOL     OW16231   5.036   3.315   3.005
 5411SOL    HW116232   5.093   3.333   3.085
 5411SOL    HW216233   4.975   3.238   3.023
 5412SOL     OW16234   5.362   2.503   2.368
 5412SOL    HW116235   5.271   2.529   2.403
 5412SOL    HW216236   5.386   2.564   2.292
 5413SOL     OW16237   4.063   3.397   3.152
 5413SOL    HW116238   4.068   3.352   3.063
 5413SOL    HW216239   4.156   3.420   3.182
 5414SOL     OW16240   4.120   2.588   3.445
 5414SOL    HW116241   4.167   2.646   3.378
 5414SOL    HW216242   4.186   2.531   3.492
 5415SOL     OW16243   5.344   2.676   3.532
 5415SOL    HW116244   5.246   2.693   3.528
 5415SOL    HW216245   5.388   2.720   3.453
 5416SOL     OW16246   4.734   1.997   3.646
 5416SOL    HW116247   4.805   2.048   3.598
 5416SOL    HW216248   4.718   1.910   3.600
 5417SOL     OW16249   4.171   1.876   3.610
 5417SOL    HW116250   4.133   1.826   3.532
 5417SOL    HW216251   4.110   1.952   3.633
 5418SOL     OW16252   4.284   2.707   2.879
 5418SOL    HW116253   4.328   2.797   2.877
 5418SOL    HW216254   4.231   2.698   2.963
 5419SOL     OW16255   5.039   2.696   2.923
 5419SOL    HW116256   4.958   2.692   2.864
 5419SOL    HW216257   5.095   2.615   2.907
 5420SOL     OW16258   4.917   2.344   2.113
 5420SOL    HW116259   4.917   2.268   2.178
 5420SOL    HW216260   4.878   2.425   2.156
 5421SOL     OW16261   4.018   2.065   3.116
 5421SOL    HW116262   3.985   2.077   3.209
 5421SOL    HW216263   4.009   1.969   3.089
 5422SOL     OW16264   3.766   3.137   3.167
 5422SOL    HW116265   3.824   3.090   3.233
 5422SOL    HW216266   3.773   3.236   3.180
 5423SOL     OW16267   4.474   2.495   2.929
 5423SOL    HW116268   4.545   2.464   2.866
 5423SOL    HW216269   4.434   2.580   2.896
 5424SOL     OW16270   5.507   2.816   3.691
 5424SOL    HW116271   5.445   2.757   3.637
 5424SOL    HW216272   5.466   2.835   3.780
 5425SOL     OW16273   4.066   1.924   2.465
 5425SOL    HW116274   4.023   2.010   2.491
 5425SOL    HW216275   4.065   1.861   2.543
 5426SOL     OW16276   5.315   2.273   2.233
 5426SOL    HW116277   5.363   2.200   2.282
 5426SOL    HW216278   5.305   2.352   2.293
 5427SOL     OW16279   4.765   2.637   2.820
 5427SOL    HW116280   4.760   2.654   2.918
 5427SOL    HW216281   4.719   2.551   2.798
 5428SOL     OW16282   4.721   3.444   3.582
 5428SOL    HW116283   4.680   3.479   3.497
 5428SOL    HW216284   4.753   3.351   3.567
 5429SOL     OW16285   5.586   3.376   3.500
 5429SOL    HW116286   5.602   3.365   3.402
 5429SOL    HW216287   5.671   3.405   3.544
 5430SOL     OW16288   4.071   2.801   3.641
 5430SOL    HW116289   4.133   2.805   3.719
 5430SOL    HW216290   4.096   2.724   3.582
 5431SOL     OW16291   5.270   2.139   2.005
 5431SOL    HW116292   5.230   2.048   2.016
 5431SOL    HW216293   5.282   2.182   2.095
 5432SOL     OW16294   5.027   2.704   1.912
 5432SOL    HW116295   5.045   2.606   1.914
 5432SOL    HW216296   5.047   2.741   1.821
 5433SOL     OW16297   4.780   3.215   2.759
 5433SOL    HW116298   4.777   3.141   2.692
 5433SOL    HW216299   4.832   3.292   2.722
 5434SOL     OW16300   4.022   2.635   2.810
 5434SOL    HW116301   4.114   2.671   2.795
 5434SOL    HW216302   4.028   2.539   2.836
 5435SOL     OW16303   4.061   2.377   2.858
 5435SOL    HW116304   4.021   2.286   2.842
 5435SOL    HW216305   4.141   2.388   2.799
 5436SOL     OW16306   4.903   2.220   3.560
 5436SOL    HW116307   4.826   2.273   3.595
 5436SOL    HW216308   4.980   2.281   3.541
 5437SOL     OW16309   4.864   2.065   3.353
 5437SOL    HW116310   4.873   2.133   3.426
 5437SOL    HW216311   4.908   2.099   3.270
 5438SOL     OW16312   3.697   3.199   2.082
 5438SOL    HW116313   3.601   3.208   2.056
 5438SOL    HW216314   3.716   3.104   2.106
 5439SOL     OW16315   3.817   3.640   2.806
 5439SOL    HW116316   3.771   3.560   2.766
 5439SOL    HW216317   3.905   3.653   2.761
 5440SOL     OW16318   4.227   3.454   2.757
 5440SOL    HW116319   4.305   3.514   2.770
 5440SOL    HW216320   4.255   3.375   2.701
 5441SOL     OW16321   4.707   2.665   3.074
 5441SOL    HW116322   4.766   2.659   3.155
 5441SOL    HW216323   4.632   2.599   3.083
 5442SOL     OW16324   3.764   2.419   2.989
 5442SOL    HW116325   3.841   2.433   2.927
 5442SOL    HW216326   3.798   2.397   3.080
 5443SOL     OW16327   3.956   2.385   3.593
 5443SOL    HW116328   4.024   2.367   3.523
 5443SOL    HW216329   3.899   2.463   3.566
 5444SOL     OW16330   5.097   2.786   3.514
 5444SOL    HW116331   5.122   2.883   3.516
 5444SOL    HW216332   5.090   2.755   3.419
 5445SOL     OW16333   4.555   2.405   2.185
 5445SOL    HW116334   4.555   2.329   2.121
 5445SOL    HW216335   4.468   2.454   2.178
 5446SOL     OW16336   5.358   2.429   3.024
 5446SOL    HW116337   5.347   2.388   3.115
 5446SOL    HW216338   5.449   2.408   2.989
 5447SOL     OW16339   3.963   3.390   3.594
 5447SOL    HW116340   3.951   3.465   3.660
 5447SOL    HW216341   3.949   3.303   3.640
 5448SOL     OW16342   4.428   2.324   3.123
 5448SOL    HW116343   4.377   2.241   3.101
 5448SOL    HW216344   4.427   2.385   3.044
 5449SOL     OW16345   4.620   3.514   3.342
 5449SOL    HW116346   4.629   3.468   3.254
 5449SOL    HW216347   4.610   3.612   3.329
 5450SOL     OW16348   4.220   2.355   2.017
 5450SOL    HW116349   4.280   2.419   2.065
 5450SOL    HW216350   4.127   2.392   2.015
 5451SOL     OW16351   3.919   2.987   3.326
 5451SOL    HW116352   3.892   2.948   3.414
 5451SOL    HW216353   3.908   2.918   3.254
 5452SOL     OW16354   5.033   2.905   3.082
 5452SOL    HW116355   5.055   2.832   3.017
 5452SOL    HW216356   4.936   2.928   3.074
 5453SOL     OW16357   5.032   2.749   2.169
 5453SOL    HW116358   4.950   2.709   2.209
 5453SOL    HW216359   5.035   2.729   2.071
 5454SOL     OW16360   5.539   3.565   3.029
 5454SOL    HW116361   5.601   3.603   2.960
 5454SOL    HW216362   5.491   3.487   2.991
 5455SOL     OW16363   4.939   3.568   3.023
 5455SOL    HW116364   5.006   3.633   2.987
 5455SOL    HW216365   4.971   3.475   3.005
 5456SOL     OW16366   3.820   3.140   2.901
 5456SOL    HW116367   3.808   3.127   2.999
 5456SOL    HW216368   3.751   3.085   2.852
 5457SOL     OW16369   4.435   3.531   3.604
 5457SOL    HW116370   4.339   3.557   3.592
 5457SOL    HW216371   4.482   3.538   3.517
 5458SOL     OW16372   5.466   2.020   2.367
 5458SOL    HW116373   5.554   2.001   2.323
 5458SOL    HW216374   5.426   1.935   2.401
 5459SOL     OW16375   5.099   3.425   2.346
 5459SOL    HW116376   5.170   3.441   2.277
 5459SOL    HW216377   5.058   3.512   2.373
 5460SOL     OW16378   3.874   3.656   3.702
 5460SOL    HW116379   3.792   3.604   3.724
 5460SOL    HW216380   3.906   3.704   3.784
 5461SOL     OW16381   4.999   2.785   2.511
 5461SOL    HW116382   5.067   2.714   2.529
 5461SOL    HW216383   5.046   2.873   2.503
 5462SOL     OW16384   4.506   3.115   3.260
 5462SOL    HW116385   4.477   3.167   3.340
 5462SOL    HW216386   4.438   3.125   3.187
 5463SOL     OW16387   4.377   3.485   2.029
 5463SOL    HW116388   4.412   3.491   1.935
 5463SOL    HW216389   4.324   3.400   2.040
 5464SOL     OW16390   5.354   3.599   3.236
 5464SOL    HW116391   5.414   3.598   3.156
 5464SOL    HW216392   5.339   3.694   3.265
 5465SOL     OW16393   5.582   2.039   2.808
 5465SOL    HW116394   5.602   1.942   2.800
 5465SOL    HW216395   5.486   2.055   2.785
 5466SOL     OW16396   3.980   2.153   2.555
 5466SOL    HW116397   3.892   2.191   2.528
 5466SOL    HW216398   3.986   2.149   2.655
 5467SOL     OW16399   4.950   3.458   1.878
 5467SOL    HW116400   4.919   3.377   1.928
 5467SOL    HW216401   4.893   3.471   1.797
 5468SOL     OW16402   4.555   2.856   3.239
 5468SOL    HW116403   4.603   2.841   3.152
 5468SOL    HW216404   4.533   2.953   3.249
 5469SOL     OW16405   4.636   2.781   2.142
 5469SOL    HW116406   4.706   2.827   2.088
 5469SOL    HW216407   4.645   2.682   2.131
 5470SOL     OW16408   5.242   3.479   1.920
 5470SOL    HW116409   5.142   3.473   1.926
 5470SOL    HW216410   5.268   3.506   1.827
 5471SOL     OW16411   4.075   3.184   3.388
 5471SOL    HW116412   4.061   3.260   3.324
 5471SOL    HW216413   4.014   3.108   3.363
 5472SOL     OW16414   5.337   3.146   3.168
 5472SOL    HW116415   5.394   3.125   3.247
 5472SOL    HW216416   5.270   3.216   3.192
 5473SOL     OW16417   4.737   3.010   2.584
 5473SOL    HW116418   4.690   2.929   2.620
 5473SOL    HW216419   4.788   2.984   2.502
 5474SOL     OW16420   4.712   2.109   2.841
 5474SOL    HW116421   4.687   2.075   2.750
 5474SOL    HW216422   4.716   2.032   2.905
 5475SOL     OW16423   4.344   3.330   2.305
 5475SOL    HW116424   4.332   3.263   2.233
 5475SOL    HW216425   4.273   3.399   2.299
 5476SOL     OW16426   5.439   2.263   3.230
 5476SOL    HW116427   5.518   2.321   3.252
 5476SOL    HW216428   5.467   2.189   3.169
 5477SOL     OW16429   3.967   3.230   2.147
 5477SOL    HW116430   3.874   3.240   2.111
 5477SOL    HW216431   3.969   3.259   2.242
 5478SOL     OW16432   3.846   2.922   3.573
 5478SOL    HW116433   3.767   2.887   3.625
 5478SOL    HW216434   3.929   2.877   3.605
 5479SOL     OW16435   4.400   2.067   3.345
 5479SOL    HW116436   4.486   2.033   3.307
 5479SOL    HW216437   4.418   2.118   3.429
 5480SOL     OW16438   3.778   2.206   1.897
 5480SOL    HW116439   3.692   2.172   1.859
 5480SOL    HW216440   3.807   2.287   1.845
 5481SOL     OW16441   5.158   2.710   3.259
 5481SOL    HW116442   5.097   2.765   3.202
 5481SOL    HW216443   5.252   2.723   3.230
 5482SOL     OW16444   3.783   2.015   2.173
 5482SOL    HW116445   3.747   2.092   2.120
 5482SOL    HW216446   3.879   1.999   2.148
 5483SOL     OW16447   4.903   3.201   1.983
 5483SOL    HW116448   4.852   3.115   1.973
 5483SOL    HW216449   4.935   3.209   2.078
 5484SOL     OW16450   4.344   2.663   3.303
 5484SOL    HW116451   4.399   2.743   3.278
 5484SOL    HW216452   4.404   2.590   3.336
 5485SOL     OW16453   5.219   3.649   2.863
 5485SOL    HW116454   5.200   3.727   2.802
 5485SOL    HW216455   5.312   3.617   2.847
 5486SOL     OW16456   4.437   2.419   3.570
 5486SOL    HW116457   4.460   2.483   3.643
 5486SOL    HW216458   4.461   2.326   3.596
 5487SOL     OW16459   5.195   3.071   3.497
 5487SOL    HW116460   5.178   3.076   3.595
 5487SOL    HW216461   5.287   3.105   3.477
 5488SOL     OW16462   4.099   3.574   3.408
 5488SOL    HW116463   4.013   3.625   3.402
 5488SOL    HW216464   4.081   3.482   3.443
 5489SOL     OW16465   5.421   2.716   3.093
 5489SOL    HW116466   5.391   2.636   3.040
 5489SOL    HW216467   5.403   2.799   3.040
 5490SOL     OW16468   4.912   2.173   2.328
 5490SOL    HW116469   4.980   2.104   2.303
 5490SOL    HW216470   4.951   2.234   2.398
 5491SOL     OW16471   4.251   2.593   2.560
 5491SOL    HW116472   4.309   2.675   2.556
 5491SOL    HW216473   4.202   2.583   2.474
 5492SOL     OW16474   5.473   2.243   3.514
 5492SOL    HW116475   5.455   2.257   3.417
 5492SOL    HW216476   5.402   2.185   3.554
 5493SOL     OW16477   5.464   2.814   3.330
 5493SOL    HW116478   5.482   2.910   3.311
 5493SOL    HW216479   5.454   2.764   3.243
 5494SOL     OW16480   4.553   3.273   1.865
 5494SOL    HW116481   4.577   3.238   1.956
 5494SOL    HW216482   4.608   3.354   1.845
 5495SOL     OW16483   4.401   3.664   2.801
 5495SOL    HW116484   4.361   3.756   2.800
 5495SOL    HW216485   4.499   3.671   2.784
 5496SOL     OW16486   4.592   2.830   2.738
 5496SOL    HW116487   4.665   2.765   2.761
 5496SOL    HW216488   4.563   2.877   2.822
 5497SOL     OW16489   4.802   2.880   1.944
 5497SOL    HW116490   4.771   2.912   1.854
 5497SOL    HW216491   4.872   2.810   1.932
 5498SOL     OW16492   5.575   3.434   2.708
 5498SOL    HW116493   5.484   3.411   2.673
 5498SOL    HW216494   5.604   3.362   2.771
 5499SOL     OW16495   3.915   3.132   3.742
 5499SOL    HW116496   3.879   3.046   3.705
 5499SOL    HW216497   3.904   3.132   3.841
 5500SOL     OW16498   3.843   3.080   2.485
 5500SOL    HW116499   3.847   3.050   2.580
 5500SOL    HW216500   3.918   3.038   2.434
 5501SOL     OW16501   4.441   3.244   3.475
 5501SOL    HW116502   4.348   3.233   3.512
 5501SOL    HW216503   4.492   3.308   3.531
 5502SOL     OW16504   5.516   2.046   3.081
 5502SOL    HW116505   5.548   1.958   3.114
 5502SOL    HW216506   5.544   2.059   2.986
 5503SOL     OW16507   4.126   2.293   2.378
 5503SOL    HW116508   4.175   2.221   2.330
 5503SOL    HW216509   4.063   2.253   2.444
 5504SOL     OW16510   5.429   3.320   2.970
 5504SOL    HW116511   5.357   3.313   2.901
 5504SOL    HW216512   5.410   3.256   3.045
 5505SOL     OW16513   4.030   2.416   3.128
 5505SOL    HW116514   4.091   2.371   3.193
 5505SOL    HW216515   4.052   2.385   3.036
 5506SOL     OW16516   4.544   3.428   2.552
 5506SOL    HW116517   4.554   3.439   2.454
 5506SOL    HW216518   4.450   3.399   2.573
 5507SOL     OW16519   5.139   2.088   2.978
 5507SOL    HW116520   5.212   2.040   3.025
 5507SOL    HW216521   5.092   2.149   3.042
 5508SOL     OW16522   4.726   1.894   3.024
 5508SOL    HW116523   4.664   1.840   2.967
 5508SOL    HW216524   4.807   1.840   3.045
 5509SOL     OW16525   4.575   3.143   2.177
 5509SOL    HW116526   4.505   3.081   2.213
 5509SOL    HW216527   4.610   3.200   2.251
 5510SOL     OW16528   4.363   3.417   3.138
 5510SOL    HW116529   4.351   3.497   3.197
 5510SOL    HW216530   4.459   3.409   3.112
 5511SOL     OW16531   5.110   1.917   2.017
 5511SOL    HW116532   5.141   1.881   1.929
 5511SOL    HW216533   5.038   1.857   2.053
 5512SOL     OW16534   5.038   2.316   2.529
 5512SOL    HW116535   4.991   2.404   2.524
 5512SOL    HW216536   5.042   2.286   2.624
 5513SOL     OW16537   5.316   2.067   2.759
 5513SOL    HW116538   5.256   2.089   2.836
 5513SOL    HW216539   5.325   2.147   2.700
 5514SOL     OW16540   3.750   2.951   2.154
 5514SOL    HW116541   3.850   2.950   2.154
 5514SOL    HW216542   3.715   2.857   2.155
 5515SOL     OW16543   4.609   3.510   2.159
 5515SOL    HW116544   4.521   3.491   2.116
 5515SOL    HW216545   4.600   3.588   2.221
 5516SOL     OW16546   3.976   2.505   3.857
 5516SOL    HW116547   3.889   2.527   3.901
 5516SOL    HW216548   3.959   2.466   3.767
 5517SOL     OW16549   3.976   2.134   4.687
 5517SOL    HW116550   4.013   2.112   4.778
 5517SOL    HW216551   3.883   2.099   4.679
 5518SOL     OW16552   3.747   2.251   4.354
 5518SOL    HW116553   3.673   2.282   4.413
 5518SOL    HW216554   3.713   2.180   4.292
 5519SOL     OW16555   4.251   3.151   4.905
 5519SOL    HW116556   4.179   3.176   4.841
 5519SOL    HW216557   4.284   3.233   4.951
 5520SOL     OW16558   5.276   3.377   4.428
 5520SOL    HW116559   5.240   3.354   4.518
 5520SOL    HW216560   5.203   3.411   4.370
 5521SOL     OW16561   4.849   2.558   4.355
 5521SOL    HW116562   4.898   2.644   4.367
 5521SOL    HW216563   4.771   2.555   4.417
 5522SOL     OW16564   5.438   2.517   3.935
 5522SOL    HW116565   5.443   2.505   3.836
 5522SOL    HW216566   5.433   2.427   3.979
 5523SOL     OW16567   4.469   3.029   4.776
 5523SOL    HW116568   4.381   3.049   4.818
 5523SOL    HW216569   4.504   3.110   4.729
 5524SOL     OW16570   4.545   2.658   5.545
 5524SOL    HW116571   4.518   2.714   5.623
 5524SOL    HW216572   4.580   2.716   5.471
 5525SOL     OW16573   4.392   2.847   4.420
 5525SOL    HW116574   4.465   2.850   4.488
 5525SOL    HW216575   4.321   2.912   4.445
 5526SOL     OW16576   4.421   3.019   5.533
 5526SOL    HW116577   4.482   3.098   5.546
 5526SOL    HW216578   4.327   3.052   5.521
 5527SOL     OW16579   4.072   3.293   4.754
 5527SOL    HW116580   3.981   3.272   4.718
 5527SOL    HW216581   4.113   3.366   4.699
 5528SOL     OW16582   5.207   3.377   5.072
 5528SOL    HW116583   5.260   3.461   5.075
 5528SOL    HW216584   5.136   3.380   5.143
 5529SOL     OW16585   4.164   2.284   5.195
 5529SOL    HW116586   4.245   2.226   5.185
 5529SOL    HW216587   4.087   2.229   5.226
 5530SOL     OW16588   5.355   2.323   4.494
 5530SOL    HW116589   5.321   2.361   4.408
 5530SOL    HW216590   5.346   2.392   4.567
 5531SOL     OW16591   3.955   3.565   4.225
 5531SOL    HW116592   3.991   3.651   4.261
 5531SOL    HW216593   4.003   3.542   4.140
 5532SOL     OW16594   4.842   3.200   5.432
 5532SOL    HW116595   4.916   3.184   5.497
 5532SOL    HW216596   4.791   3.115   5.417
 5533SOL     OW16597   3.995   3.287   4.275
 5533SOL    HW116598   3.960   3.381   4.277
 5533SOL    HW216599   3.926   3.225   4.312
 5534SOL     OW16600   3.960   2.954   4.598
 5534SOL    HW116601   3.960   2.861   4.635
 5534SOL    HW216602   3.929   3.018   4.667
 5535SOL     OW16603   4.346   3.621   5.179
 5535SOL    HW116604   4.253   3.603   5.211
 5535SOL    HW216605   4.367   3.718   5.191
 5536SOL     OW16606   4.319   2.809   3.884
 5536SOL    HW116607   4.337   2.873   3.810
 5536SOL    HW216608   4.375   2.832   3.963
 5537SOL     OW16609   5.343   2.005   5.184
 5537SOL    HW116610   5.316   2.089   5.138
 5537SOL    HW216611   5.327   2.013   5.282
 5538SOL     OW16612   3.837   2.501   4.277
 5538SOL    HW116613   3.817   2.407   4.303
 5538SOL    HW216614   3.831   2.560   4.358
 5539SOL     OW16615   5.566   3.600   4.056
 5539SOL    HW116616   5.640   3.556   4.107
 5539SOL    HW216617   5.580   3.699   4.055
 5540SOL     OW16618   3.714   3.471   3.836
 5540SOL    HW116619   3.710   3.374   3.860
 5540SOL    HW216620   3.724   3.526   3.918
 5541SOL     OW16621   5.401   2.792   4.376
 5541SOL    HW116622   5.478   2.744   4.333
 5541SOL    HW216623   5.367   2.862   4.313
 5542SOL     OW16624   5.362   3.023   4.199
 5542SOL    HW116625   5.448   2.994   4.157
 5542SOL    HW216626   5.381   3.062   4.289
 5543SOL     OW16627   3.843   2.612   5.327
 5543SOL    HW116628   3.942   2.627   5.326
 5543SOL    HW216629   3.796   2.696   5.300
 5544SOL     OW16630   4.318   3.245   4.440
 5544SOL    HW116631   4.261   3.164   4.450
 5544SOL    HW216632   4.313   3.278   4.346
 5545SOL     OW16633   5.000   3.084   5.163
 5545SOL    HW116634   5.026   3.025   5.086
 5545SOL    HW216635   5.055   3.061   5.243
 5546SOL     OW16636   4.543   1.841   4.194
 5546SOL    HW116637   4.592   1.928   4.197
 5546SOL    HW216638   4.445   1.856   4.206
 5547SOL     OW16639   3.903   2.818   4.997
 5547SOL    HW116640   3.985   2.774   4.961
 5547SOL    HW216641   3.823   2.764   4.970
 5548SOL     OW16642   5.259   2.842   3.901
 5548SOL    HW116643   5.191   2.788   3.950
 5548SOL    HW216644   5.314   2.894   3.967
 5549SOL     OW16645   4.924   3.659   5.335
 5549SOL    HW116646   4.895   3.721   5.262
 5549SOL    HW216647   4.938   3.567   5.297
 5550SOL     OW16648   4.029   2.101   5.551
 5550SOL    HW116649   4.056   2.197   5.560
 5550SOL    HW216650   3.938   2.089   5.591
 5551SOL     OW16651   5.199   3.280   4.660
 5551SOL    HW116652   5.139   3.294   4.739
 5551SOL    HW216653   5.206   3.182   4.640
 5552SOL     OW16654   5.378   3.615   4.314
 5552SOL    HW116655   5.345   3.591   4.223
 5552SOL    HW216656   5.375   3.534   4.373
 5553SOL     OW16657   4.342   2.564   4.017
 5553SOL    HW116658   4.339   2.641   3.953
 5553SOL    HW216659   4.270   2.574   4.085
 5554SOL     OW16660   5.025   2.239   4.653
 5554SOL    HW116661   4.929   2.214   4.656
 5554SOL    HW216662   5.076   2.187   4.722
 5555SOL     OW16663   5.308   3.542   4.053
 5555SOL    HW116664   5.405   3.563   4.060
 5555SOL    HW216665   5.285   3.526   3.957
 5556SOL     OW16666   4.540   2.459   5.193
 5556SOL    HW116667   4.500   2.438   5.282
 5556SOL    HW216668   4.496   2.403   5.123
 5557SOL     OW16669   5.126   2.365   5.418
 5557SOL    HW116670   5.116   2.404   5.510
 5557SOL    HW216671   5.186   2.285   5.423
 5558SOL     OW16672   4.717   2.733   5.290
 5558SOL    HW116673   4.763   2.655   5.247
 5558SOL    HW216674   4.667   2.784   5.220
 5559SOL     OW16675   4.722   2.227   4.967
 5559SOL    HW116676   4.637   2.276   4.988
 5559SOL    HW216677   4.714   2.186   4.876
 5560SOL     OW16678   4.776   2.541   4.087
 5560SOL    HW116679   4.793   2.554   4.185
 5560SOL    HW216680   4.689   2.493   4.075
 5561SOL     OW16681   3.820   2.679   4.492
 5561SOL    HW116682   3.899   2.657   4.549
 5561SOL    HW216683   3.764   2.748   4.537
 5562SOL     OW16684   3.848   3.683   5.298
 5562SOL    HW116685   3.869   3.676   5.396
 5562SOL    HW216686   3.775   3.751   5.284
 5563SOL     OW16687   4.593   2.197   3.877
 5563SOL    HW116688   4.635   2.259   3.810
 5563SOL    HW216689   4.633   2.106   3.868
 5564SOL     OW16690   5.426   2.470   5.554
 5564SOL    HW116691   5.407   2.555   5.505
 5564SOL    HW216692   5.445   2.397   5.488
 5565SOL     OW16693   5.106   3.025   4.283
 5565SOL    HW116694   5.188   3.012   4.227
 5565SOL    HW216695   5.038   3.075   4.230
 5566SOL     OW16696   4.253   2.028   4.649
 5566SOL    HW116697   4.270   2.064   4.741
 5566SOL    HW216698   4.247   2.104   4.584
 5567SOL     OW16699   4.754   3.345   4.173
 5567SOL    HW116700   4.688   3.401   4.121
 5567SOL    HW216701   4.783   3.395   4.254
 5568SOL     OW16702   4.065   3.663   4.576
 5568SOL    HW116703   4.121   3.580   4.582
 5568SOL    HW216704   4.120   3.742   4.603
 5569SOL     OW16705   5.530   2.949   4.621
 5569SOL    HW116706   5.465   2.953   4.545
 5569SOL    HW216707   5.481   2.938   4.707
 5570SOL     OW16708   4.966   3.405   5.233
 5570SOL    HW116709   4.981   3.313   5.270
 5570SOL    HW216710   4.871   3.413   5.202
 5571SOL     OW16711   4.039   2.852   3.961
 5571SOL    HW116712   4.139   2.849   3.954
 5571SOL    HW216713   4.002   2.762   3.940
 5572SOL     OW16714   5.176   2.610   4.446
 5572SOL    HW116715   5.173   2.551   4.527
 5572SOL    HW216716   5.266   2.653   4.440
 5573SOL     OW16717   4.172   3.127   5.500
 5573SOL    HW116718   4.157   3.143   5.402
 5573SOL    HW216719   4.084   3.127   5.547
 5574SOL     OW16720   4.901   3.623   3.949
 5574SOL    HW116721   4.811   3.599   3.985
 5574SOL    HW216722   4.917   3.576   3.863
 5575SOL     OW16723   3.930   2.129   5.249
 5575SOL    HW116724   3.842   2.162   5.217
 5575SOL    HW216725   3.927   2.115   5.348
 5576SOL     OW16726   5.333   3.225   3.850
 5576SOL    HW116727   5.307   3.318   3.824
 5576SOL    HW216728   5.267   3.160   3.812
 5577SOL     OW16729   4.199   3.582   4.067
 5577SOL    HW116730   4.238   3.656   4.123
 5577SOL    HW216731   4.265   3.554   3.998
 5578SOL     OW16732   5.092   1.992   4.138
 5578SOL    HW116733   5.091   1.970   4.040
 5578SOL    HW216734   5.187   1.998   4.170
 5579SOL     OW16735   3.997   3.671   4.917
 5579SOL    HW116736   4.010   3.583   4.962
 5579SOL    HW216737   3.974   3.657   4.821
 5580SOL     OW16738   4.659   3.580   4.622
 5580SOL    HW116739   4.710   3.519   4.683
 5580SOL    HW216740   4.621   3.528   4.546
 5581SOL     OW16741   4.113   2.551   4.184
 5581SOL    HW116742   4.122   2.454   4.206
 5581SOL    HW216743   4.019   2.580   4.202
 5582SOL     OW16744   5.238   2.109   5.447
 5582SOL    HW116745   5.252   2.126   5.545
 5582SOL    HW216746   5.155   2.055   5.434
 5583SOL     OW16747   4.332   1.960   3.790
 5583SOL    HW116748   4.417   1.908   3.785
 5583SOL    HW216749   4.272   1.934   3.715
 5584SOL     OW16750   4.469   2.154   5.486
 5584SOL    HW116751   4.557   2.107   5.487
 5584SOL    HW216752   4.413   2.123   5.562
 5585SOL     OW16753   4.635   3.402   4.921
 5585SOL    HW116754   4.597   3.360   4.839
 5585SOL    HW216755   4.707   3.344   4.958
 5586SOL     OW16756   5.066   2.459   5.169
 5586SOL    HW116757   5.102   2.435   5.260
 5586SOL    HW216758   5.095   2.552   5.145
 5587SOL     OW16759   4.495   3.258   4.644
 5587SOL    HW116760   4.584   3.274   4.603
 5587SOL    HW216761   4.430   3.229   4.573
 5588SOL     OW16762   4.649   2.370   4.635
 5588SOL    HW116763   4.605   2.341   4.550
 5588SOL    HW216764   4.683   2.290   4.684
 5589SOL     OW16765   4.293   1.931   4.198
 5589SOL    HW116766   4.213   1.930   4.258
 5589SOL    HW216767   4.300   2.020   4.153
 5590SOL     OW16768   5.144   3.051   3.751
 5590SOL    HW116769   5.172   2.960   3.783
 5590SOL    HW216770   5.074   3.088   3.812
 5591SOL     OW16771   4.013   1.904   3.929
 5591SOL    HW116772   4.069   1.960   3.869
 5591SOL    HW216773   4.071   1.842   3.982
 5592SOL     OW16774   4.659   2.083   4.185
 5592SOL    HW116775   4.615   2.133   4.110
 5592SOL    HW216776   4.753   2.115   4.195
 5593SOL     OW16777   4.807   2.516   5.147
 5593SOL    HW116778   4.725   2.461   5.163
 5593SOL    HW216779   4.888   2.461   5.165
 5594SOL     OW16780   4.925   3.419   4.518
 5594SOL    HW116781   4.957   3.462   4.434
 5594SOL    HW216782   4.998   3.422   4.587
 5595SOL     OW16783   4.183   3.008   4.468
 5595SOL    HW116784   4.099   2.980   4.516
 5595SOL    HW216785   4.165   3.012   4.370
 5596SOL     OW16786   5.021   3.657   4.301
 5596SOL    HW116787   5.044   3.723   4.229
 5596SOL    HW216788   4.983   3.706   4.380
 5597SOL     OW16789   4.729   2.396   3.677
 5597SOL    HW116790   4.692   2.488   3.667
 5597SOL    HW216791   4.785   2.392   3.760
 5598SOL     OW16792   3.798   2.404   5.155
 5598SOL    HW116793   3.882   2.397   5.100
 5598SOL    HW216794   3.807   2.482   5.218
 5599SOL     OW16795   4.278   2.102   4.921
 5599SOL    HW116796   4.336   2.033   4.965
 5599SOL    HW216797   4.182   2.080   4.938
 5600SOL     OW16798   4.576   2.276   4.388
 5600SOL    HW116799   4.529   2.326   4.314
 5600SOL    HW216800   4.624   2.198   4.349
 5601SOL     OW16801   4.693   1.935   4.472
 5601SOL    HW116802   4.665   1.897   4.383
 5601SOL    HW216803   4.716   1.861   4.534
 5602SOL     OW16804   5.176   2.990   4.614
 5602SOL    HW116805   5.087   2.948   4.632
 5602SOL    HW216806   5.198   2.982   4.517
 5603SOL     OW16807   5.185   2.472   4.676
 5603SOL    HW116808   5.129   2.390   4.669
 5603SOL    HW216809   5.257   2.459   4.744
 5604SOL     OW16810   5.566   2.691   4.091
 5604SOL    HW116811   5.631   2.641   4.148
 5604SOL    HW216812   5.525   2.628   4.024
 5605SOL     OW16813   4.217   3.270   3.916
 5605SOL    HW116814   4.124   3.255   3.952
 5605SOL    HW216815   4.219   3.246   3.819
 5606SOL     OW16816   5.423   3.156   4.435
 5606SOL    HW116817   5.511   3.174   4.391
 5606SOL    HW216818   5.360   3.232   4.416
 5607SOL     OW16819   5.097   2.448   3.807
 5607SOL    HW116820   5.029   2.403   3.866
 5607SOL    HW216821   5.188   2.428   3.842
 5608SOL     OW16822   4.270   2.147   4.042
 5608SOL    HW116823   4.279   2.077   3.971
 5608SOL    HW216824   4.245   2.234   4.000
 5609SOL     OW16825   5.454   3.140   5.302
 5609SOL    HW116826   5.540   3.093   5.282
 5609SOL    HW216827   5.468   3.206   5.376
 5610SOL     OW16828   4.779   3.217   5.084
 5610SOL    HW116829   4.692   3.189   5.125
 5610SOL    HW216830   4.854   3.166   5.127
 5611SOL     OW16831   5.342   3.528   5.378
 5611SOL    HW116832   5.329   3.541   5.280
 5611SOL    HW216833   5.428   3.479   5.394
 5612SOL     OW16834   4.775   3.040   4.856
 5612SOL    HW116835   4.779   3.107   4.930
 5612SOL    HW216836   4.763   3.088   4.769
 5613SOL     OW16837   5.364   2.946   4.825
 5613SOL    HW116838   5.357   3.024   4.888
 5613SOL    HW216839   5.298   2.957   4.751
 5614SOL     OW16840   4.643   1.940   5.151
 5614SOL    HW116841   4.654   1.917   5.054
 5614SOL    HW216842   4.718   1.999   5.180
 5615SOL     OW16843   4.710   2.962   5.447
 5615SOL    HW116844   4.611   2.979   5.450
 5615SOL    HW216845   4.729   2.888   5.383
 5616SOL     OW16846   4.460   2.933   4.141
 5616SOL    HW116847   4.454   2.910   4.238
 5616SOL    HW216848   4.532   2.878   4.098
 5617SOL     OW16849   4.130   2.656   4.970
 5617SOL    HW116850   4.213   2.661   5.027
 5617SOL    HW216851   4.080   2.572   4.991
 5618SOL     OW16852   5.008   2.280   4.983
 5618SOL    HW116853   5.041   2.350   5.047
 5618SOL    HW216854   4.911   2.293   4.966
 5619SOL     OW16855   3.791   3.414   5.078
 5619SOL    HW116856   3.741   3.479   5.020
 5619SOL    HW216857   3.888   3.439   5.080
 5620SOL     OW16858   4.112   3.006   4.213
 5620SOL    HW116859   4.118   3.075   4.140
 5620SOL    HW216860   4.115   2.915   4.172
 5621SOL     OW16861   4.308   2.389   4.589
 5621SOL    HW116862   4.301   2.461   4.520
 5621SOL    HW216863   4.365   2.421   4.665
 5622SOL     OW16864   4.992   3.207   4.101
 5622SOL    HW116865   5.044   3.278   4.149
 5622SOL    HW216866   4.895   3.221   4.117
 5623SOL     OW16867   5.046   3.293   4.875
 5623SOL    HW116868   5.101   3.321   4.954
 5623SOL    HW216869   4.983   3.220   4.902
 5624SOL     OW16870   5.360   2.505   4.231
 5624SOL    HW116871   5.261   2.519   4.243
 5624SOL    HW216872   5.392   2.560   4.155
 5625SOL     OW16873   4.061   3.409   5.012
 5625SOL    HW116874   4.065   3.359   4.925
 5625SOL    HW216875   4.153   3.421   5.048
 5626SOL     OW16876   4.109   2.599   5.312
 5626SOL    HW116877   4.163   2.640   5.239
 5626SOL    HW216878   4.168   2.540   5.367
 5627SOL     OW16879   5.358   2.675   5.399
 5627SOL    HW116880   5.259   2.663   5.385
 5627SOL    HW216881   5.395   2.731   5.326
 5628SOL     OW16882   4.708   2.029   5.483
 5628SOL    HW116883   4.788   2.088   5.471
 5628SOL    HW216884   4.724   1.941   5.439
 5629SOL     OW16885   4.184   1.859   5.480
 5629SOL    HW116886   4.157   1.819   5.392
 5629SOL    HW216887   4.131   1.942   5.496
 5630SOL     OW16888   4.281   2.721   4.735
 5630SOL    HW116889   4.314   2.815   4.734
 5630SOL    HW216890   4.229   2.705   4.818
 5631SOL     OW16891   5.043   2.699   4.782
 5631SOL    HW116892   4.959   2.702   4.728
 5631SOL    HW216893   5.094   2.615   4.761
 5632SOL     OW16894   4.916   2.344   3.975
 5632SOL    HW116895   4.914   2.268   4.040
 5632SOL    HW216896   4.876   2.425   4.018
 5633SOL     OW16897   4.016   2.067   4.952
 5633SOL    HW116898   3.988   2.094   5.044
 5633SOL    HW216899   4.003   1.969   4.940
 5634SOL     OW16900   3.786   3.148   5.013
 5634SOL    HW116901   3.834   3.095   5.083
 5634SOL    HW216902   3.790   3.245   5.037
 5635SOL     OW16903   4.475   2.506   4.790
 5635SOL    HW116904   4.545   2.466   4.730
 5635SOL    HW216905   4.438   2.589   4.747
 5636SOL     OW16906   5.438   2.853   5.585
 5636SOL    HW116907   5.405   2.783   5.521
 5636SOL    HW216908   5.369   2.866   5.657
 5637SOL     OW16909   4.066   1.922   4.326
 5637SOL    HW116910   4.022   2.007   4.353
 5637SOL    HW216911   4.066   1.859   4.404
 5638SOL     OW16912   5.314   2.276   4.094
 5638SOL    HW116913   5.362   2.204   4.144
 5638SOL    HW216914   5.302   2.355   4.155
 5639SOL     OW16915   4.772   2.641   4.679
 5639SOL    HW116916   4.765   2.656   4.778
 5639SOL    HW216917   4.723   2.557   4.655
 5640SOL     OW16918   4.709   3.437   5.460
 5640SOL    HW116919   4.681   3.482   5.375
 5640SOL    HW216920   4.757   3.352   5.438
 5641SOL     OW16921   5.603   3.384   5.360
 5641SOL    HW116922   5.616   3.354   5.266
 5641SOL    HW216923   5.688   3.423   5.395
 5642SOL     OW16924   4.091   2.774   5.534
 5642SOL    HW116925   4.179   2.790   5.579
 5642SOL    HW216926   4.105   2.718   5.452
 5643SOL     OW16927   5.273   2.141   3.866
 5643SOL    HW116928   5.229   2.051   3.874
 5643SOL    HW216929   5.282   2.182   3.957
 5644SOL     OW16930   5.026   2.705   3.775
 5644SOL    HW116931   5.045   2.607   3.778
 5644SOL    HW216932   5.047   2.740   3.684
 5645SOL     OW16933   4.770   3.218   4.618
 5645SOL    HW116934   4.765   3.146   4.549
 5645SOL    HW216935   4.828   3.292   4.585
 5646SOL     OW16936   4.026   2.637   4.669
 5646SOL    HW116937   4.117   2.675   4.654
 5646SOL    HW216938   4.035   2.540   4.694
 5647SOL     OW16939   4.067   2.375   4.719
 5647SOL    HW116940   4.019   2.288   4.706
 5647SOL    HW216941   4.147   2.379   4.658
 5648SOL     OW16942   4.896   2.220   5.425
 5648SOL    HW116943   4.826   2.270   5.475
 5648SOL    HW216944   4.975   2.279   5.409
 5649SOL     OW16945   4.863   2.074   5.207
 5649SOL    HW116946   4.866   2.140   5.282
 5649SOL    HW216947   4.908   2.112   5.127
 5650SOL     OW16948   3.697   3.200   3.945
 5650SOL    HW116949   3.601   3.208   3.918
 5650SOL    HW216950   3.718   3.105   3.968
 5651SOL     OW16951   3.818   3.640   4.671
 5651SOL    HW116952   3.771   3.562   4.630
 5651SOL    HW216953   3.904   3.656   4.623
 5652SOL     OW16954   4.221   3.459   4.615
 5652SOL    HW116955   4.299   3.518   4.637
 5652SOL    HW216956   4.252   3.381   4.561
 5653SOL     OW16957   4.707   2.665   4.932
 5653SOL    HW116958   4.763   2.664   5.015
 5653SOL    HW216959   4.633   2.598   4.941
 5654SOL     OW16960   3.768   2.432   4.848
 5654SOL    HW116961   3.848   2.437   4.788
 5654SOL    HW216962   3.796   2.403   4.939
 5655SOL     OW16963   3.957   2.390   5.454
 5655SOL    HW116964   4.020   2.361   5.382
 5655SOL    HW216965   3.902   2.467   5.421
 5656SOL     OW16966   5.098   2.782   5.374
 5656SOL    HW116967   5.121   2.880   5.377
 5656SOL    HW216968   5.103   2.750   5.279
 5657SOL     OW16969   4.556   2.409   4.043
 5657SOL    HW116970   4.553   2.330   3.983
 5657SOL    HW216971   4.468   2.457   4.040
 5658SOL     OW16972   5.358   2.436   4.881
 5658SOL    HW116973   5.348   2.396   4.972
 5658SOL    HW216974   5.450   2.418   4.847
 5659SOL     OW16975   3.965   3.411   5.459
 5659SOL    HW116976   3.947   3.482   5.527
 5659SOL    HW216977   3.962   3.321   5.503
 5660SOL     OW16978   4.431   2.323   4.982
 5660SOL    HW116979   4.369   2.247   4.963
 5660SOL    HW216980   4.431   2.386   4.904
 5661SOL     OW16981   4.636   3.514   5.196
 5661SOL    HW116982   4.634   3.468   5.107
 5661SOL    HW216983   4.625   3.612   5.184
 5662SOL     OW16984   4.223   2.365   3.873
 5662SOL    HW116985   4.282   2.428   3.924
 5662SOL    HW216986   4.129   2.400   3.873
 5663SOL     OW16987   3.901   2.994   5.193
 5663SOL    HW116988   3.868   2.952   5.277
 5663SOL    HW216989   3.903   2.926   5.120
 5664SOL     OW16990   5.031   2.902   4.950
 5664SOL    HW116991   5.054   2.833   4.881
 5664SOL    HW216992   4.933   2.924   4.943
 5665SOL     OW16993   5.028   2.747   4.033
 5665SOL    HW116994   4.951   2.699   4.074
 5665SOL    HW216995   5.031   2.728   3.935
 5666SOL     OW16996   5.539   3.568   4.890
 5666SOL    HW116997   5.602   3.606   4.821
 5666SOL    HW216998   5.493   3.488   4.853
 5667SOL     OW16999   4.940   3.555   4.863
 5667SOL    HW117000   5.012   3.621   4.842
 5667SOL    HW217001   4.976   3.462   4.853
 5668SOL     OW17002   3.832   3.132   4.758
 5668SOL    HW117003   3.821   3.133   4.857
 5668SOL    HW217004   3.756   3.082   4.716
 5669SOL     OW17005   4.429   3.527   5.471
 5669SOL    HW117006   4.331   3.544   5.462
 5669SOL    HW217007   4.475   3.553   5.386
 5670SOL     OW17008   5.471   2.023   4.233
 5670SOL    HW117009   5.553   2.000   4.182
 5670SOL    HW217010   5.430   1.940   4.272
 5671SOL     OW17011   5.095   3.427   4.212
 5671SOL    HW117012   5.167   3.440   4.144
 5671SOL    HW217013   5.055   3.516   4.235
 5672SOL     OW17014   3.888   3.669   5.564
 5672SOL    HW117015   3.802   3.624   5.588
 5672SOL    HW217016   3.934   3.699   5.647
 5673SOL     OW17017   4.993   2.786   4.373
 5673SOL    HW117018   5.061   2.715   4.394
 5673SOL    HW217019   5.040   2.874   4.363
 5674SOL     OW17020   4.498   3.102   5.131
 5674SOL    HW117021   4.478   3.165   5.206
 5674SOL    HW217022   4.433   3.118   5.057
 5675SOL     OW17023   4.379   3.480   3.891
 5675SOL    HW117024   4.408   3.490   3.796
 5675SOL    HW217025   4.325   3.396   3.901
 5676SOL     OW17026   5.355   3.603   5.105
 5676SOL    HW117027   5.414   3.598   5.024
 5676SOL    HW217028   5.343   3.698   5.132
 5677SOL     OW17029   5.586   2.038   4.668
 5677SOL    HW117030   5.606   1.940   4.661
 5677SOL    HW217031   5.491   2.055   4.643
 5678SOL     OW17032   3.978   2.151   4.417
 5678SOL    HW117033   3.889   2.188   4.393
 5678SOL    HW217034   3.988   2.149   4.517
 5679SOL     OW17035   4.959   3.463   3.737
 5679SOL    HW117036   4.924   3.382   3.784
 5679SOL    HW217037   4.905   3.479   3.655
 5680SOL     OW17038   4.566   2.855   5.107
 5680SOL    HW117039   4.609   2.841   5.018
 5680SOL    HW217040   4.531   2.948   5.113
 5681SOL     OW17041   4.635   2.782   4.001
 5681SOL    HW117042   4.709   2.826   3.949
 5681SOL    HW217043   4.647   2.683   3.998
 5682SOL     OW17044   5.239   3.486   3.789
 5682SOL    HW117045   5.140   3.483   3.800
 5682SOL    HW217046   5.261   3.508   3.694
 5683SOL     OW17047   4.085   3.180   5.258
 5683SOL    HW117048   4.064   3.262   5.204
 5683SOL    HW217049   4.023   3.106   5.233
 5684SOL     OW17050   5.349   3.149   5.032
 5684SOL    HW117051   5.396   3.126   5.117
 5684SOL    HW217052   5.285   3.224   5.049
 5685SOL     OW17053   4.730   3.012   4.443
 5685SOL    HW117054   4.687   2.931   4.483
 5685SOL    HW217055   4.790   2.984   4.368
 5686SOL     OW17056   4.712   2.106   4.715
 5686SOL    HW117057   4.686   2.076   4.623
 5686SOL    HW217058   4.713   2.027   4.776
 5687SOL     OW17059   4.355   3.334   4.167
 5687SOL    HW117060   4.386   3.266   4.100
 5687SOL    HW217061   4.277   3.384   4.130
 5688SOL     OW17062   5.437   2.266   5.086
 5688SOL    HW117063   5.514   2.325   5.107
 5688SOL    HW217064   5.467   2.191   5.027
 5689SOL     OW17065   3.965   3.233   4.007
 5689SOL    HW117066   3.870   3.245   3.979
 5689SOL    HW217067   3.974   3.256   4.104
 5690SOL     OW17068   3.834   2.920   5.460
 5690SOL    HW117069   3.758   2.896   5.520
 5690SOL    HW217070   3.915   2.868   5.486
 5691SOL     OW17071   4.394   2.058   5.213
 5691SOL    HW117072   4.482   2.020   5.184
 5691SOL    HW217073   4.409   2.122   5.288
 5692SOL     OW17074   3.779   2.206   3.758
 5692SOL    HW117075   3.692   2.172   3.721
 5692SOL    HW217076   3.805   2.290   3.709
 5693SOL     OW17077   5.161   2.718   5.127
 5693SOL    HW117078   5.103   2.772   5.066
 5693SOL    HW217079   5.256   2.721   5.095
 5694SOL     OW17080   3.780   2.015   4.036
 5694SOL    HW117081   3.744   2.094   3.987
 5694SOL    HW217082   3.876   2.000   4.010
 5695SOL     OW17083   4.909   3.202   3.846
 5695SOL    HW117084   4.854   3.120   3.832
 5695SOL    HW217085   4.942   3.205   3.940
 5696SOL     OW17086   4.343   2.654   5.172
 5696SOL    HW117087   4.387   2.744   5.175
 5696SOL    HW217088   4.411   2.584   5.193
 5697SOL     OW17089   5.221   3.644   4.720
 5697SOL    HW117090   5.201   3.725   4.665
 5697SOL    HW217091   5.315   3.614   4.703
 5698SOL     OW17092   4.437   2.428   5.433
 5698SOL    HW117093   4.463   2.496   5.501
 5698SOL    HW217094   4.457   2.337   5.468
 5699SOL     OW17095   5.160   3.055   5.360
 5699SOL    HW117096   5.152   3.059   5.459
 5699SOL    HW217097   5.247   3.096   5.332
 5700SOL     OW17098   4.093   3.594   5.272
 5700SOL    HW117099   4.006   3.642   5.259
 5700SOL    HW217100   4.077   3.512   5.327
 5701SOL     OW17101   5.420   2.717   4.968
 5701SOL    HW117102   5.400   2.636   4.912
 5701SOL    HW217103   5.409   2.799   4.912
 5702SOL     OW17104   4.908   2.172   4.194
 5702SOL    HW117105   4.977   2.104   4.167
 5702SOL    HW217106   4.947   2.232   4.264
 5703SOL     OW17107   4.256   2.593   4.416
 5703SOL    HW117108   4.312   2.676   4.413
 5703SOL    HW217109   4.205   2.583   4.331
 5704SOL     OW17110   5.469   2.260   5.367
 5704SOL    HW117111   5.451   2.272   5.269
 5704SOL    HW217112   5.402   2.196   5.406
 5705SOL     OW17113   5.456   2.824   5.202
 5705SOL    HW117114   5.488   2.918   5.188
 5705SOL    HW217115   5.450   2.779   5.113
 5706SOL     OW17116   4.560   3.273   3.729
 5706SOL    HW117117   4.571   3.246   3.825
 5706SOL    HW217118   4.603   3.362   3.715
 5707SOL     OW17119   4.398   3.663   4.666
 5707SOL    HW117120   4.358   3.755   4.664
 5707SOL    HW217121   4.495   3.668   4.642
 5708SOL     OW17122   4.591   2.838   4.600
 5708SOL    HW117123   4.664   2.772   4.620
 5708SOL    HW217124   4.561   2.882   4.684
 5709SOL     OW17125   4.801   2.888   3.805
 5709SOL    HW117126   4.769   2.920   3.716
 5709SOL    HW217127   4.868   2.816   3.793
 5710SOL     OW17128   5.569   3.438   4.579
 5710SOL    HW117129   5.483   3.412   4.535
 5710SOL    HW217130   5.598   3.367   4.642
 5711SOL     OW17131   3.923   3.148   5.597
 5711SOL    HW117132   3.887   3.073   5.543
 5711SOL    HW217133   3.867   3.160   5.679
 5712SOL     OW17134   3.844   3.078   4.345
 5712SOL    HW117135   3.847   3.051   4.442
 5712SOL    HW217136   3.920   3.037   4.296
 5713SOL     OW17137   4.455   3.254   5.342
 5713SOL    HW117138   4.364   3.253   5.382
 5713SOL    HW217139   4.506   3.332   5.378
 5714SOL     OW17140   5.514   2.049   4.945
 5714SOL    HW117141   5.539   1.958   4.978
 5714SOL    HW217142   5.542   2.058   4.849
 5715SOL     OW17143   4.124   2.291   4.241
 5715SOL    HW117144   4.175   2.219   4.194
 5715SOL    HW217145   4.063   2.250   4.308
 5716SOL     OW17146   5.429   3.328   4.830
 5716SOL    HW117147   5.352   3.316   4.766
 5716SOL    HW217148   5.417   3.268   4.909
 5717SOL     OW17149   4.027   2.409   4.995
 5717SOL    HW117150   4.089   2.363   5.059
 5717SOL    HW217151   4.052   2.386   4.901
 5718SOL     OW17152   4.548   3.426   4.413
 5718SOL    HW117153   4.554   3.448   4.316
 5718SOL    HW217154   4.460   3.383   4.432
 5719SOL     OW17155   5.137   2.090   4.844
 5719SOL    HW117156   5.211   2.043   4.891
 5719SOL    HW217157   5.089   2.150   4.909
 5720SOL     OW17158   4.712   1.891   4.896
 5720SOL    HW117159   4.658   1.828   4.840
 5720SOL    HW217160   4.800   1.849   4.917
 5721SOL     OW17161   4.558   3.157   4.057
 5721SOL    HW117162   4.503   3.079   4.085
 5721SOL    HW217163   4.611   3.190   4.135
 5722SOL     OW17164   4.356   3.414   5.006
 5722SOL    HW117165   4.343   3.493   5.065
 5722SOL    HW217166   4.452   3.410   4.977
 5723SOL     OW17167   5.111   1.917   3.878
 5723SOL    HW117168   5.141   1.879   3.791
 5723SOL    HW217169   5.034   1.864   3.913
 5724SOL     OW17170   5.037   2.314   4.389
 5724SOL    HW117171   4.989   2.402   4.386
 5724SOL    HW217172   5.041   2.282   4.484
 5725SOL     OW17173   5.323   2.075   4.616
 5725SOL    HW117174   5.264   2.094   4.695
 5725SOL    HW217175   5.328   2.157   4.558
 5726SOL     OW17176   3.751   2.950   4.016
 5726SOL    HW117177   3.851   2.950   4.018
 5726SOL    HW217178   3.718   2.856   4.013
 5727SOL     OW17179   4.613   3.515   4.015
 5727SOL    HW117180   4.525   3.491   3.973
 5727SOL    HW217181   4.599   3.588   4.082
 5728SOL     OW17182   3.962   2.494   5.724
 5728SOL    HW117183   3.873   2.490   5.769
 5728SOL    HW217184   3.950   2.483   5.625
 5729SOL     OW17185   5.446   2.501   5.818
 5729SOL    HW117186   5.440   2.516   5.719
 5729SOL    HW217187   5.439   2.403   5.837
 5730SOL     OW17188   3.945   3.551   0.042
 5730SOL    HW117189   3.977   3.608   0.118
 5730SOL    HW217190   3.998   3.572   5.960
 5731SOL     OW17191   4.341   2.823   5.748
 5731SOL    HW117192   4.356   2.892   5.677
 5731SOL    HW217193   4.363   2.862   5.838
 5732SOL     OW17194   5.546   3.566   5.933
 5732SOL    HW117195   5.599   3.496   5.981
 5732SOL    HW217196   5.592   3.654   5.942
 5733SOL     OW17197   3.725   3.489   5.685
 5733SOL    HW117198   3.731   3.392   5.710
 5733SOL    HW217199   3.714   3.544   5.768
 5734SOL     OW17200   5.408   2.789   0.200
 5734SOL    HW117201   5.485   2.784   0.264
 5734SOL    HW217202   5.434   2.745   0.113
 5735SOL     OW17203   5.390   3.007   5.986
 5735SOL    HW117204   5.486   2.982   5.989
 5735SOL    HW217205   5.343   2.971   0.067
 5736SOL     OW17206   5.250   2.861   5.791
 5736SOL    HW117207   5.209   2.776   5.824
 5736SOL    HW217208   5.299   2.906   5.866
 5737SOL     OW17209   4.303   2.573   5.881
 5737SOL    HW117210   4.316   2.651   5.819
 5737SOL    HW217211   4.272   2.607   5.970
 5738SOL     OW17212   4.582   2.217   5.753
 5738SOL    HW117213   4.637   2.262   5.683
 5738SOL    HW217214   4.610   2.121   5.762
 5739SOL     OW17215   4.053   2.803   5.856
 5739SOL    HW117216   4.133   2.824   5.800
 5739SOL    HW217217   3.993   2.740   5.806
 5740SOL     OW17218   4.879   3.627   5.822
 5740SOL    HW117219   4.784   3.598   5.839
 5740SOL    HW217220   4.914   3.581   5.741
 5741SOL     OW17221   5.354   3.229   5.630
 5741SOL    HW117222   5.325   3.322   5.652
 5741SOL    HW217223   5.274   3.171   5.616
 5742SOL     OW17224   4.210   3.642   5.937
 5742SOL    HW117225   4.228   3.700   0.016
 5742SOL    HW217226   4.295   3.623   5.889
 5743SOL     OW17227   4.319   1.968   5.679
 5743SOL    HW117228   4.410   1.925   5.677
 5743SOL    HW217229   4.265   1.936   5.601
 5744SOL     OW17230   5.134   3.057   5.622
 5744SOL    HW117231   5.167   2.978   5.672
 5744SOL    HW217232   5.071   3.109   5.679
 5745SOL     OW17233   4.026   1.901   5.796
 5745SOL    HW117234   4.075   1.959   5.731
 5745SOL    HW217235   4.092   1.847   5.848
 5746SOL     OW17236   4.731   2.377   5.578
 5746SOL    HW117237   4.685   2.463   5.559
 5746SOL    HW217238   4.807   2.393   5.642
 5747SOL     OW17239   5.551   2.692   5.973
 5747SOL    HW117240   5.614   2.642   0.032
 5747SOL    HW217241   5.519   2.631   5.900
 5748SOL     OW17242   4.207   3.291   5.755
 5748SOL    HW117243   4.125   3.261   5.804
 5748SOL    HW217244   4.215   3.240   5.669
 5749SOL     OW17245   5.409   3.139   0.332
 5749SOL    HW117246   5.505   3.117   0.315
 5749SOL    HW217247   5.365   3.170   0.248
 5750SOL     OW17248   5.096   2.448   5.667
 5750SOL    HW117249   5.026   2.403   5.723
 5750SOL    HW217250   5.187   2.428   5.704
 5751SOL     OW17251   4.281   2.123   5.904
 5751SOL    HW117252   4.281   2.057   5.828
 5751SOL    HW217253   4.262   2.214   5.868
 5752SOL     OW17254   4.119   2.983   0.051
 5752SOL    HW117255   4.094   3.070   0.009
 5752SOL    HW217256   4.082   2.908   5.997
 5753SOL     OW17257   4.913   2.348   5.840
 5753SOL    HW117258   4.944   2.256   5.864
 5753SOL    HW217259   4.845   2.379   5.907
 5754SOL     OW17260   4.041   1.928   0.207
 5754SOL    HW117261   4.085   2.017   0.196
 5754SOL    HW217262   4.107   1.863   0.246
 5755SOL     OW17263   5.267   2.155   5.715
 5755SOL    HW117264   5.213   2.071   5.720
 5755SOL    HW217265   5.295   2.182   5.807
 5756SOL     OW17266   5.045   2.715   5.633
 5756SOL    HW117267   5.053   2.615   5.637
 5756SOL    HW217268   5.062   2.746   5.540
 5757SOL     OW17269   3.731   3.186   5.778
 5757SOL    HW117270   3.650   3.198   5.720
 5757SOL    HW217271   3.726   3.098   5.825
 5758SOL     OW17272   4.550   2.466   5.863
 5758SOL    HW117273   4.553   2.374   5.825
 5758SOL    HW217274   4.455   2.490   5.883
 5759SOL     OW17275   4.194   2.353   5.754
 5759SOL    HW117276   4.253   2.422   5.796
 5759SOL    HW217277   4.106   2.395   5.730
 5760SOL     OW17278   5.521   1.972   0.101
 5760SOL    HW117279   5.578   1.993   0.021
 5760SOL    HW217280   5.463   1.893   0.081
 5761SOL     OW17281   4.413   3.469   5.754
 5761SOL    HW117282   4.425   3.490   5.657
 5761SOL    HW217283   4.333   3.410   5.767
 5762SOL     OW17284   4.954   3.487   5.605
 5762SOL    HW117285   4.919   3.400   5.639
 5762SOL    HW217286   4.909   3.509   5.518
 5763SOL     OW17287   4.668   2.749   5.883
 5763SOL    HW117288   4.720   2.785   5.805
 5763SOL    HW217289   4.630   2.660   5.860
 5764SOL     OW17290   5.247   3.493   5.648
 5764SOL    HW117291   5.148   3.483   5.648
 5764SOL    HW217292   5.278   3.521   5.557
 5765SOL     OW17293   4.809   2.954   0.335
 5765SOL    HW117294   4.710   2.940   0.343
 5765SOL    HW217295   4.839   2.925   0.245
 5766SOL     OW17296   3.975   3.237   5.897
 5766SOL    HW117297   3.884   3.223   5.857
 5766SOL    HW217298   3.973   3.319   5.955
 5767SOL     OW17299   3.782   2.226   5.654
 5767SOL    HW117300   3.688   2.212   5.621
 5767SOL    HW217301   3.833   2.279   5.586
 5768SOL     OW17302   3.797   2.015   5.894
 5768SOL    HW117303   3.773   2.041   5.800
 5768SOL    HW217304   3.888   1.975   5.895
 5769SOL     OW17305   4.932   3.226   5.742
 5769SOL    HW117306   4.842   3.202   5.706
 5769SOL    HW217307   4.944   3.185   5.832
 5770SOL     OW17308   4.966   2.136   0.014
 5770SOL    HW117309   5.041   2.095   0.066
 5770SOL    HW217310   4.933   2.217   0.063
 5771SOL     OW17311   4.569   3.260   5.610
 5771SOL    HW117312   4.530   3.297   5.695
 5771SOL    HW217313   4.627   3.329   5.567
 5772SOL     OW17314   4.811   2.842   5.678
 5772SOL    HW117315   4.772   2.879   5.594
 5772SOL    HW217316   4.901   2.803   5.658
 5773SOL     OW17317   5.114   1.940   5.729
 5773SOL    HW117318   5.145   1.866   5.669
 5773SOL    HW217319   5.028   1.912   5.773
 5774SOL     OW17320   3.777   2.929   5.895
 5774SOL    HW117321   3.877   2.917   5.894
 5774SOL    HW217322   3.733   2.840   5.901
 5775SOL     OW17323   4.641   3.506   5.894
 5775SOL    HW117324   4.562   3.479   5.840
 5775SOL    HW217325   4.613   3.573   5.963
 5776SOL     OW17326   3.980   4.399   0.124
 5776SOL    HW117327   3.916   4.324   0.138
 5776SOL    HW217328   4.007   4.401   0.027
 5777SOL     OW17329   3.978   3.991   0.972
 5777SOL    HW117330   4.006   3.959   1.063
 5777SOL    HW217331   3.881   3.971   0.957
 5778SOL     OW17332   3.753   4.116   0.619
 5778SOL    HW117333   3.672   4.146   0.670
 5778SOL    HW217334   3.732   4.033   0.569
 5779SOL     OW17335   4.253   5.013   1.163
 5779SOL    HW117336   4.186   5.035   1.093
 5779SOL    HW217337   4.268   5.093   1.221
 5780SOL     OW17338   5.289   5.234   0.698
 5780SOL    HW117339   5.253   5.212   0.789
 5780SOL    HW217340   5.213   5.257   0.637
 5781SOL     OW17341   4.831   4.425   0.638
 5781SOL    HW117342   4.899   4.497   0.652
 5781SOL    HW217343   4.765   4.428   0.713
 5782SOL     OW17344   5.511   4.356   0.184
 5782SOL    HW117345   5.484   4.329   0.091
 5782SOL    HW217346   5.477   4.288   0.249
 5783SOL     OW17347   4.470   4.884   1.057
 5783SOL    HW117348   4.380   4.906   1.095
 5783SOL    HW217349   4.508   4.966   1.013
 5784SOL     OW17350   4.556   4.535   1.798
 5784SOL    HW117351   4.555   4.627   1.837
 5784SOL    HW217352   4.581   4.540   1.701
 5785SOL     OW17353   4.373   4.702   0.688
 5785SOL    HW117354   4.455   4.707   0.746
 5785SOL    HW217355   4.309   4.773   0.715
 5786SOL     OW17356   4.431   4.875   1.808
 5786SOL    HW117357   4.480   4.961   1.817
 5786SOL    HW217358   4.335   4.894   1.785
 5787SOL     OW17359   4.061   5.159   1.043
 5787SOL    HW117360   3.976   5.121   1.007
 5787SOL    HW217361   4.106   5.213   0.971
 5788SOL     OW17362   5.209   5.238   1.351
 5788SOL    HW117363   5.265   5.321   1.356
 5788SOL    HW217364   5.134   5.245   1.417
 5789SOL     OW17365   4.166   4.146   1.470
 5789SOL    HW117366   4.248   4.089   1.460
 5789SOL    HW217367   4.089   4.089   1.500
 5790SOL     OW17368   5.345   4.168   0.729
 5790SOL    HW117369   5.323   4.230   0.654
 5790SOL    HW217370   5.313   4.206   0.815
 5791SOL     OW17371   3.977   5.419   0.521
 5791SOL    HW117372   4.017   5.506   0.549
 5791SOL    HW217373   3.964   5.419   0.422
 5792SOL     OW17374   4.831   5.057   1.691
 5792SOL    HW117375   4.888   5.061   1.773
 5792SOL    HW217376   4.777   4.973   1.692
 5793SOL     OW17377   4.001   5.155   0.549
 5793SOL    HW117378   3.990   5.254   0.551
 5793SOL    HW217379   3.926   5.112   0.599
 5794SOL     OW17380   3.963   4.801   0.884
 5794SOL    HW117381   3.960   4.709   0.924
 5794SOL    HW217382   3.931   4.867   0.952
 5795SOL     OW17383   4.351   5.498   1.453
 5795SOL    HW117384   4.258   5.482   1.487
 5795SOL    HW217385   4.372   5.595   1.460
 5796SOL     OW17386   4.324   4.670   0.137
 5796SOL    HW117387   4.267   4.747   0.106
 5796SOL    HW217388   4.378   4.699   0.216
 5797SOL     OW17389   5.330   3.862   1.468
 5797SOL    HW117390   5.323   3.950   1.422
 5797SOL    HW217391   5.310   3.873   1.565
 5798SOL     OW17392   3.851   4.362   0.562
 5798SOL    HW117393   3.824   4.268   0.581
 5798SOL    HW217394   3.830   4.420   0.641
 5799SOL     OW17395   5.571   5.461   0.321
 5799SOL    HW117396   5.640   5.416   0.378
 5799SOL    HW217397   5.590   5.560   0.319
 5800SOL     OW17398   3.701   5.316   0.123
 5800SOL    HW117399   3.722   5.221   0.145
 5800SOL    HW217400   3.745   5.376   0.190
 5801SOL     OW17401   5.382   4.623   0.679
 5801SOL    HW117402   5.461   4.580   0.636
 5801SOL    HW217403   5.348   4.697   0.621
 5802SOL     OW17404   5.347   4.823   0.517
 5802SOL    HW117405   5.364   4.851   0.423
 5802SOL    HW217406   5.376   4.896   0.580
 5803SOL     OW17407   3.850   4.458   1.594
 5803SOL    HW117408   3.949   4.456   1.585
 5803SOL    HW217409   3.817   4.551   1.577
 5804SOL     OW17410   4.318   5.102   0.716
 5804SOL    HW117411   4.262   5.021   0.727
 5804SOL    HW217412   4.310   5.136   0.622
 5805SOL     OW17413   5.022   4.941   1.444
 5805SOL    HW117414   5.049   4.896   1.359
 5805SOL    HW217415   5.083   4.913   1.517
 5806SOL     OW17416   4.552   3.731   0.510
 5806SOL    HW117417   4.599   3.818   0.495
 5806SOL    HW217418   4.454   3.747   0.515
 5807SOL     OW17419   3.927   4.693   1.268
 5807SOL    HW117420   4.006   4.639   1.240
 5807SOL    HW217421   3.843   4.648   1.236
 5808SOL     OW17422   5.186   4.791   0.186
 5808SOL    HW117423   5.136   4.714   0.145
 5808SOL    HW217424   5.258   4.756   0.245
 5809SOL     OW17425   4.928   5.528   1.613
 5809SOL    HW117426   4.904   5.572   1.527
 5809SOL    HW217427   4.962   5.435   1.595
 5810SOL     OW17428   4.023   3.962   1.826
 5810SOL    HW117429   4.062   4.054   1.815
 5810SOL    HW217430   3.930   3.969   1.862
 5811SOL     OW17431   5.198   5.136   0.929
 5811SOL    HW117432   5.139   5.150   1.008
 5811SOL    HW217433   5.198   5.040   0.902
 5812SOL     OW17434   5.385   5.476   0.574
 5812SOL    HW117435   5.362   5.438   0.485
 5812SOL    HW217436   5.378   5.405   0.644
 5813SOL     OW17437   4.335   4.435   0.294
 5813SOL    HW117438   4.344   4.515   0.234
 5813SOL    HW217439   4.255   4.446   0.353
 5814SOL     OW17440   5.023   4.096   0.940
 5814SOL    HW117441   4.927   4.070   0.940
 5814SOL    HW217442   5.074   4.038   1.003
 5815SOL     OW17443   5.318   5.377   0.312
 5815SOL    HW117444   5.406   5.424   0.313
 5815SOL    HW217445   5.285   5.369   0.218
 5816SOL     OW17446   4.529   4.331   1.464
 5816SOL    HW117447   4.493   4.297   1.551
 5816SOL    HW217448   4.489   4.279   1.389
 5817SOL     OW17449   5.128   4.236   1.689
 5817SOL    HW117450   5.113   4.277   1.779
 5817SOL    HW217451   5.185   4.155   1.698
 5818SOL     OW17452   4.704   4.593   1.564
 5818SOL    HW117453   4.768   4.527   1.525
 5818SOL    HW217454   4.646   4.631   1.491
 5819SOL     OW17455   4.725   4.096   1.234
 5819SOL    HW117456   4.638   4.140   1.258
 5819SOL    HW217457   4.716   4.051   1.145
 5820SOL     OW17458   4.761   4.418   0.378
 5820SOL    HW117459   4.780   4.421   0.476
 5820SOL    HW217460   4.682   4.359   0.361
 5821SOL     OW17461   3.809   4.519   0.779
 5821SOL    HW117462   3.888   4.502   0.837
 5821SOL    HW217463   3.757   4.597   0.815
 5822SOL     OW17464   3.853   5.570   1.569
 5822SOL    HW117465   3.847   5.540   1.664
 5822SOL    HW217466   3.781   5.637   1.551
 5823SOL     OW17467   4.588   4.043   0.173
 5823SOL    HW117468   4.632   4.109   0.112
 5823SOL    HW217469   4.612   3.950   0.145
 5824SOL     OW17470   5.433   4.342   1.812
 5824SOL    HW117471   5.395   4.428   1.777
 5824SOL    HW217472   5.446   4.279   1.736
 5825SOL     OW17473   5.088   4.885   0.567
 5825SOL    HW117474   5.177   4.863   0.527
 5825SOL    HW217475   5.028   4.921   0.496
 5826SOL     OW17476   4.257   3.890   0.921
 5826SOL    HW117477   4.270   3.920   1.015
 5826SOL    HW217478   4.262   3.968   0.859
 5827SOL     OW17479   4.742   5.192   0.453
 5827SOL    HW117480   4.688   5.263   0.407
 5827SOL    HW217481   4.768   5.224   0.544
 5828SOL     OW17482   4.076   5.512   0.881
 5828SOL    HW117483   4.132   5.429   0.882
 5828SOL    HW217484   4.131   5.590   0.911
 5829SOL     OW17485   5.533   4.795   0.891
 5829SOL    HW117486   5.465   4.795   0.817
 5829SOL    HW217487   5.486   4.780   0.978
 5830SOL     OW17488   4.981   5.259   1.535
 5830SOL    HW117489   4.985   5.161   1.558
 5830SOL    HW217490   4.888   5.283   1.506
 5831SOL     OW17491   3.992   4.658   0.226
 5831SOL    HW117492   4.088   4.688   0.229
 5831SOL    HW217493   3.987   4.569   0.180
 5832SOL     OW17494   5.176   4.459   0.728
 5832SOL    HW117495   5.177   4.399   0.808
 5832SOL    HW217496   5.262   4.510   0.723
 5833SOL     OW17497   4.182   5.010   1.771
 5833SOL    HW117498   4.155   5.024   1.676
 5833SOL    HW217499   4.101   5.001   1.829
 5834SOL     OW17500   4.884   5.461   0.244
 5834SOL    HW117501   4.794   5.439   0.281
 5834SOL    HW217502   4.901   5.406   0.162
 5835SOL     OW17503   3.928   3.984   1.511
 5835SOL    HW117504   3.853   4.040   1.476
 5835SOL    HW217505   3.921   3.977   1.611
 5836SOL     OW17506   5.353   5.108   0.102
 5836SOL    HW117507   5.329   5.198   0.064
 5836SOL    HW217508   5.358   5.041   0.028
 5837SOL     OW17509   4.219   5.449   0.311
 5837SOL    HW117510   4.258   5.504   0.385
 5837SOL    HW217511   4.289   5.427   0.244
 5838SOL     OW17512   5.107   3.867   0.427
 5838SOL    HW117513   5.105   3.830   0.335
 5838SOL    HW217514   5.199   3.857   0.465
 5839SOL     OW17515   3.928   5.514   1.205
 5839SOL    HW117516   3.980   5.436   1.239
 5839SOL    HW217517   3.924   5.511   1.105
 5840SOL     OW17518   4.677   5.432   0.902
 5840SOL    HW117519   4.727   5.365   0.957
 5840SOL    HW217520   4.627   5.385   0.830
 5841SOL     OW17521   4.098   4.409   0.446
 5841SOL    HW117522   4.117   4.314   0.468
 5841SOL    HW217523   4.002   4.430   0.466
 5842SOL     OW17524   5.249   3.960   1.743
 5842SOL    HW117525   5.259   3.993   1.837
 5842SOL    HW217526   5.166   3.904   1.736
 5843SOL     OW17527   4.359   3.819   0.089
 5843SOL    HW117528   4.459   3.818   0.087
 5843SOL    HW217529   4.326   3.893   0.030
 5844SOL     OW17530   4.479   4.001   1.750
 5844SOL    HW117531   4.569   3.960   1.761
 5844SOL    HW217532   4.421   3.976   1.828
 5845SOL     OW17533   4.635   5.252   1.184
 5845SOL    HW117534   4.588   5.208   1.108
 5845SOL    HW217535   4.710   5.194   1.216
 5846SOL     OW17536   5.056   4.332   1.453
 5846SOL    HW117537   5.093   4.302   1.541
 5846SOL    HW217538   5.100   4.417   1.426
 5847SOL     OW17539   4.503   5.111   0.926
 5847SOL    HW117540   4.587   5.153   0.892
 5847SOL    HW217541   4.446   5.082   0.849
 5848SOL     OW17542   4.644   4.227   0.902
 5848SOL    HW117543   4.599   4.202   0.816
 5848SOL    HW217544   4.676   4.144   0.948
 5849SOL     OW17545   4.302   3.794   0.481
 5849SOL    HW117546   4.224   3.787   0.544
 5849SOL    HW217547   4.294   3.878   0.428
 5850SOL     OW17548   5.063   4.936   6.000
 5850SOL    HW117549   5.132   4.880   0.046
 5850SOL    HW217550   4.998   4.971   0.067
 5851SOL     OW17551   4.669   3.959   0.443
 5851SOL    HW117552   4.627   4.004   0.364
 5851SOL    HW217553   4.765   3.987   0.449
 5852SOL     OW17554   4.803   4.382   1.419
 5852SOL    HW117555   4.731   4.317   1.443
 5852SOL    HW217556   4.892   4.340   1.433
 5853SOL     OW17557   4.951   5.279   0.812
 5853SOL    HW117558   4.999   5.313   0.731
 5853SOL    HW217559   5.016   5.265   0.887
 5854SOL     OW17560   4.169   4.876   0.748
 5854SOL    HW117561   4.101   4.837   0.810
 5854SOL    HW217562   4.129   4.883   0.656
 5855SOL     OW17563   5.017   5.536   0.580
 5855SOL    HW117564   5.050   5.601   0.512
 5855SOL    HW217565   4.988   5.585   0.662
 5856SOL     OW17566   4.738   4.246   0.047
 5856SOL    HW117567   4.663   4.293   6.000
 5856SOL    HW217568   4.788   4.312   0.104
 5857SOL     OW17569   3.799   4.259   1.425
 5857SOL    HW117570   3.884   4.249   1.374
 5857SOL    HW217571   3.805   4.339   1.485
 5858SOL     OW17572   4.280   3.944   1.186
 5858SOL    HW117573   4.340   3.883   1.238
 5858SOL    HW217574   4.186   3.934   1.217
 5859SOL     OW17575   4.575   4.132   0.654
 5859SOL    HW117576   4.534   4.193   0.586
 5859SOL    HW217577   4.627   4.060   0.607
 5860SOL     OW17578   4.683   3.797   0.744
 5860SOL    HW117579   4.648   3.760   0.658
 5860SOL    HW217580   4.719   3.722   0.800
 5861SOL     OW17581   5.142   4.881   0.861
 5861SOL    HW117582   5.082   4.820   0.912
 5861SOL    HW217583   5.113   4.884   0.765
 5862SOL     OW17584   5.210   4.291   0.934
 5862SOL    HW117585   5.137   4.223   0.948
 5862SOL    HW217586   5.266   4.297   1.016
 5863SOL     OW17587   5.633   4.548   0.365
 5863SOL    HW117588   5.679   4.490   0.433
 5863SOL    HW217589   5.586   4.491   0.298
 5864SOL     OW17590   4.214   5.088   0.194
 5864SOL    HW117591   4.121   5.099   0.229
 5864SOL    HW217592   4.211   5.068   0.096
 5865SOL     OW17593   5.430   5.011   0.688
 5865SOL    HW117594   5.518   5.025   0.643
 5865SOL    HW217595   5.373   5.093   0.676
 5866SOL     OW17596   5.103   4.338   0.086
 5866SOL    HW117597   5.042   4.296   0.153
 5866SOL    HW217598   5.174   4.272   0.059
 5867SOL     OW17599   4.252   3.995   0.309
 5867SOL    HW117600   4.307   3.943   0.243
 5867SOL    HW217601   4.230   4.085   0.272
 5868SOL     OW17602   5.466   5.011   1.578
 5868SOL    HW117603   5.546   4.959   1.548
 5868SOL    HW217604   5.495   5.084   1.641
 5869SOL     OW17605   4.781   5.053   1.355
 5869SOL    HW117606   4.689   5.039   1.390
 5869SOL    HW217607   4.847   5.008   1.416
 5870SOL     OW17608   5.331   5.368   1.655
 5870SOL    HW117609   5.326   5.395   1.558
 5870SOL    HW217610   5.418   5.324   1.673
 5871SOL     OW17611   4.774   4.899   1.115
 5871SOL    HW117612   4.772   4.959   1.195
 5871SOL    HW217613   4.762   4.953   1.032
 5872SOL     OW17614   5.358   4.799   1.105
 5872SOL    HW117615   5.358   4.879   1.166
 5872SOL    HW217616   5.291   4.812   1.033
 5873SOL     OW17617   4.639   3.805   1.410
 5873SOL    HW117618   4.659   3.778   1.316
 5873SOL    HW217619   4.715   3.859   1.446
 5874SOL     OW17620   4.700   4.823   1.706
 5874SOL    HW117621   4.603   4.839   1.722
 5874SOL    HW217622   4.711   4.747   1.641
 5875SOL     OW17623   4.409   4.776   0.396
 5875SOL    HW117624   4.393   4.759   0.493
 5875SOL    HW217625   4.494   4.732   0.368
 5876SOL     OW17626   4.139   4.520   1.258
 5876SOL    HW117627   4.208   4.536   1.328
 5876SOL    HW217628   4.096   4.431   1.274
 5877SOL     OW17629   5.018   4.141   1.266
 5877SOL    HW117630   5.040   4.214   1.332
 5877SOL    HW217631   4.922   4.146   1.242
 5878SOL     OW17632   3.777   5.268   1.349
 5878SOL    HW117633   3.733   5.346   1.306
 5878SOL    HW217634   3.876   5.275   1.337
 5879SOL     OW17635   4.093   4.866   0.492
 5879SOL    HW117636   4.103   4.928   0.415
 5879SOL    HW217637   4.127   4.775   0.466
 5880SOL     OW17638   4.305   4.252   0.869
 5880SOL    HW117639   4.292   4.324   0.801
 5880SOL    HW217640   4.374   4.280   0.935
 5881SOL     OW17641   4.992   5.087   0.368
 5881SOL    HW117642   5.028   5.166   0.417
 5881SOL    HW217643   4.897   5.070   0.396
 5882SOL     OW17644   5.047   5.174   1.143
 5882SOL    HW117645   5.101   5.191   1.226
 5882SOL    HW217646   4.985   5.098   1.160
 5883SOL     OW17647   5.333   4.347   0.492
 5883SOL    HW117648   5.240   4.352   0.527
 5883SOL    HW217649   5.348   4.419   0.424
 5884SOL     OW17650   4.057   5.278   1.285
 5884SOL    HW117651   4.063   5.227   1.200
 5884SOL    HW217652   4.150   5.296   1.320
 5885SOL     OW17653   4.118   4.446   1.578
 5885SOL    HW117654   4.168   4.511   1.520
 5885SOL    HW217655   4.183   4.390   1.629
 5886SOL     OW17656   5.347   4.548   1.669
 5886SOL    HW117657   5.248   4.566   1.666
 5886SOL    HW217658   5.391   4.591   1.591
 5887SOL     OW17659   4.734   3.862   1.777
 5887SOL    HW117660   4.811   3.909   1.734
 5887SOL    HW217661   4.719   3.774   1.732
 5888SOL     OW17662   4.175   3.728   1.747
 5888SOL    HW117663   4.137   3.684   1.666
 5888SOL    HW217664   4.120   3.808   1.770
 5889SOL     OW17665   4.292   4.563   1.015
 5889SOL    HW117666   4.334   4.654   1.012
 5889SOL    HW217667   4.236   4.555   1.098
 5890SOL     OW17668   5.050   4.568   1.063
 5890SOL    HW117669   4.961   4.572   1.016
 5890SOL    HW217670   5.090   4.478   1.050
 5891SOL     OW17671   4.937   4.242   0.263
 5891SOL    HW117672   4.942   4.164   0.325
 5891SOL    HW217673   4.880   4.313   0.303
 5892SOL     OW17674   4.021   3.917   1.250
 5892SOL    HW117675   3.986   3.927   1.343
 5892SOL    HW217676   4.006   3.823   1.219
 5893SOL     OW17677   3.774   4.994   1.301
 5893SOL    HW117678   3.837   4.953   1.367
 5893SOL    HW217679   3.763   5.091   1.321
 5894SOL     OW17680   4.487   4.359   1.072
 5894SOL    HW117681   4.550   4.321   1.003
 5894SOL    HW217682   4.441   4.439   1.034
 5895SOL     OW17683   5.501   4.683   1.835
 5895SOL    HW117684   5.441   4.627   1.778
 5895SOL    HW217685   5.460   4.692   1.926
 5896SOL     OW17686   4.086   3.785   0.618
 5896SOL    HW117687   4.048   3.875   0.640
 5896SOL    HW217688   4.070   3.723   0.695
 5897SOL     OW17689   5.390   4.113   0.352
 5897SOL    HW117690   5.415   4.033   0.407
 5897SOL    HW217691   5.366   4.189   0.413
 5898SOL     OW17692   4.762   4.500   0.958
 5898SOL    HW117693   4.756   4.517   1.056
 5898SOL    HW217694   4.719   4.412   0.937
 5899SOL     OW17695   4.711   5.299   1.718
 5899SOL    HW117696   4.678   5.340   1.633
 5899SOL    HW217697   4.749   5.209   1.699
 5900SOL     OW17698   5.594   5.244   1.641
 5900SOL    HW117699   5.606   5.227   1.543
 5900SOL    HW217700   5.681   5.272   1.681
 5901SOL     OW17701   4.078   4.660   1.774
 5901SOL    HW117702   4.131   4.663   1.859
 5901SOL    HW217703   4.100   4.576   1.724
 5902SOL     OW17704   5.201   3.997   0.168
 5902SOL    HW117705   5.190   3.897   0.170
 5902SOL    HW217706   5.268   4.025   0.236
 5903SOL     OW17707   5.059   4.588   0.046
 5903SOL    HW117708   5.072   4.489   0.057
 5903SOL    HW217709   5.024   4.607   5.955
 5904SOL     OW17710   4.787   5.082   0.897
 5904SOL    HW117711   4.785   5.008   0.831
 5904SOL    HW217712   4.840   5.158   0.861
 5905SOL     OW17713   4.021   4.498   0.961
 5905SOL    HW117714   4.112   4.530   0.935
 5905SOL    HW217715   4.027   4.403   0.992
 5906SOL     OW17716   4.056   4.239   1.009
 5906SOL    HW117717   4.021   4.147   0.996
 5906SOL    HW217718   4.136   4.254   0.950
 5907SOL     OW17719   4.908   4.077   1.702
 5907SOL    HW117720   4.832   4.128   1.741
 5907SOL    HW217721   4.983   4.140   1.680
 5908SOL     OW17722   4.862   3.927   1.493
 5908SOL    HW117723   4.873   3.994   1.566
 5908SOL    HW217724   4.909   3.960   1.411
 5909SOL     OW17725   3.815   5.526   0.924
 5909SOL    HW117726   3.771   5.445   0.886
 5909SOL    HW217727   3.911   5.530   0.894
 5910SOL     OW17728   4.232   5.305   0.897
 5910SOL    HW117729   4.310   5.366   0.909
 5910SOL    HW217730   4.254   5.234   0.830
 5911SOL     OW17731   4.714   4.528   1.210
 5911SOL    HW117732   4.758   4.520   1.300
 5911SOL    HW217733   4.645   4.456   1.200
 5912SOL     OW17734   3.763   4.275   1.124
 5912SOL    HW117735   3.846   4.293   1.071
 5912SOL    HW217736   3.787   4.256   1.219
 5913SOL     OW17737   3.959   4.244   1.732
 5913SOL    HW117738   4.031   4.226   1.664
 5913SOL    HW217739   3.904   4.322   1.702
 5914SOL     OW17740   5.098   4.645   1.657
 5914SOL    HW117741   5.123   4.741   1.659
 5914SOL    HW217742   5.088   4.615   1.561
 5915SOL     OW17743   4.550   4.281   0.322
 5915SOL    HW117744   4.536   4.199   0.266
 5915SOL    HW217745   4.467   4.337   0.320
 5916SOL     OW17746   5.361   4.290   1.167
 5916SOL    HW117747   5.354   4.240   1.254
 5916SOL    HW217748   5.451   4.274   1.127
 5917SOL     OW17749   3.960   5.241   1.738
 5917SOL    HW117750   3.962   5.315   1.805
 5917SOL    HW217751   3.948   5.153   1.785
 5918SOL     OW17752   4.431   4.183   1.265
 5918SOL    HW117753   4.377   4.102   1.243
 5918SOL    HW217754   4.431   4.245   1.187
 5919SOL     OW17755   4.634   5.367   1.463
 5919SOL    HW117756   4.635   5.318   1.376
 5919SOL    HW217757   4.625   5.465   1.445
 5920SOL     OW17758   4.190   4.216   0.198
 5920SOL    HW117759   4.252   4.285   0.234
 5920SOL    HW217760   4.097   4.254   0.193
 5921SOL     OW17761   3.922   4.860   1.469
 5921SOL    HW117762   3.887   4.818   1.553
 5921SOL    HW217763   3.920   4.793   1.395
 5922SOL     OW17764   5.041   4.793   1.215
 5922SOL    HW117765   5.068   4.721   1.150
 5922SOL    HW217766   4.942   4.798   1.219
 5923SOL     OW17767   5.048   4.549   0.351
 5923SOL    HW117768   4.953   4.574   0.369
 5923SOL    HW217769   5.058   4.528   0.253
 5924SOL     OW17770   5.534   5.438   1.157
 5924SOL    HW117771   5.587   5.476   1.081
 5924SOL    HW217772   5.478   5.362   1.124
 5925SOL     OW17773   4.948   5.429   1.153
 5925SOL    HW117774   5.005   5.496   1.105
 5925SOL    HW217775   4.985   5.337   1.140
 5926SOL     OW17776   3.833   4.985   1.034
 5926SOL    HW117777   3.820   4.982   1.133
 5926SOL    HW217778   3.756   4.939   0.988
 5927SOL     OW17779   4.428   5.386   1.732
 5927SOL    HW117780   4.336   5.424   1.727
 5927SOL    HW217781   4.477   5.404   1.646
 5928SOL     OW17782   4.660   3.792   0.123
 5928SOL    HW117783   4.728   3.817   0.055
 5928SOL    HW217784   4.705   3.764   0.208
 5929SOL     OW17785   5.474   3.872   0.501
 5929SOL    HW117786   5.560   3.854   0.452
 5929SOL    HW217787   5.441   3.787   0.542
 5930SOL     OW17788   5.088   5.312   0.466
 5930SOL    HW117789   5.168   5.326   0.407
 5930SOL    HW217790   5.054   5.400   0.498
 5931SOL     OW17791   3.850   5.507   1.833
 5931SOL    HW117792   3.773   5.453   1.866
 5931SOL    HW217793   3.891   5.558   1.909
 5932SOL     OW17794   5.000   4.638   0.657
 5932SOL    HW117795   5.069   4.571   0.685
 5932SOL    HW217796   5.044   4.713   0.607
 5933SOL     OW17797   4.507   4.972   1.398
 5933SOL    HW117798   4.483   5.024   1.480
 5933SOL    HW217799   4.438   4.988   1.328
 5934SOL     OW17800   4.391   5.329   0.143
 5934SOL    HW117801   4.441   5.282   0.069
 5934SOL    HW217802   4.342   5.262   0.198
 5935SOL     OW17803   5.351   5.477   1.377
 5935SOL    HW117804   5.417   5.479   1.301
 5935SOL    HW217805   5.322   5.571   1.398
 5936SOL     OW17806   5.588   3.896   0.936
 5936SOL    HW117807   5.615   3.800   0.923
 5936SOL    HW217808   5.492   3.908   0.912
 5937SOL     OW17809   3.988   4.016   0.692
 5937SOL    HW117810   3.902   4.060   0.664
 5937SOL    HW217811   3.993   4.013   0.791
 5938SOL     OW17812   4.953   5.312   0.020
 5938SOL    HW117813   4.927   5.223   0.057
 5938SOL    HW217814   4.881   5.345   5.959
 5939SOL     OW17815   4.559   4.715   1.374
 5939SOL    HW117816   4.610   4.704   1.289
 5939SOL    HW217817   4.534   4.811   1.385
 5940SOL     OW17818   4.613   4.633   0.276
 5940SOL    HW117819   4.688   4.673   0.222
 5940SOL    HW217820   4.640   4.543   0.308
 5941SOL     OW17821   5.210   5.377   0.055
 5941SOL    HW117822   5.117   5.341   0.060
 5941SOL    HW217823   5.240   5.379   5.960
 5942SOL     OW17824   4.090   5.044   1.536
 5942SOL    HW117825   4.069   5.123   1.480
 5942SOL    HW217826   4.027   4.970   1.514
 5943SOL     OW17827   5.337   5.010   1.292
 5943SOL    HW117828   5.396   4.989   1.370
 5943SOL    HW217829   5.274   5.084   1.316
 5944SOL     OW17830   4.750   4.872   0.718
 5944SOL    HW117831   4.704   4.791   0.755
 5944SOL    HW217832   4.809   4.845   0.642
 5945SOL     OW17833   4.705   3.970   0.989
 5945SOL    HW117834   4.685   3.944   0.894
 5945SOL    HW217835   4.712   3.888   1.045
 5946SOL     OW17836   4.351   5.199   0.449
 5946SOL    HW117837   4.366   5.122   0.387
 5946SOL    HW217838   4.271   5.251   0.420
 5947SOL     OW17839   5.435   4.108   1.370
 5947SOL    HW117840   5.506   4.175   1.389
 5947SOL    HW217841   5.471   4.036   1.310
 5948SOL     OW17842   3.948   5.091   0.294
 5948SOL    HW117843   3.866   5.035   0.295
 5948SOL    HW217844   3.970   5.120   0.387
 5949SOL     OW17845   3.848   4.784   1.711
 5949SOL    HW117846   3.771   4.746   1.762
 5949SOL    HW217847   3.932   4.735   1.736
 5950SOL     OW17848   4.402   3.926   1.479
 5950SOL    HW117849   4.490   3.894   1.443
 5950SOL    HW217850   4.418   3.976   1.564
 5951SOL     OW17851   3.840   4.113   0.026
 5951SOL    HW117852   3.830   4.018   5.998
 5951SOL    HW217853   3.839   4.172   5.944
 5952SOL     OW17854   5.163   4.586   1.393
 5952SOL    HW117855   5.108   4.642   1.332
 5952SOL    HW217856   5.259   4.595   1.369
 5953SOL     OW17857   3.804   3.860   0.320
 5953SOL    HW117858   3.734   3.901   0.261
 5953SOL    HW217859   3.889   3.850   0.268
 5954SOL     OW17860   4.859   5.078   0.138
 5954SOL    HW117861   4.784   5.014   0.158
 5954SOL    HW217862   4.920   5.084   0.217
 5955SOL     OW17863   4.350   4.534   1.441
 5955SOL    HW117864   4.403   4.612   1.407
 5955SOL    HW217865   4.413   4.463   1.474
 5956SOL     OW17866   5.213   5.497   0.965
 5956SOL    HW117867   5.213   5.588   0.922
 5956SOL    HW217868   5.282   5.495   1.037
 5957SOL     OW17869   4.446   4.279   1.713
 5957SOL    HW117870   4.471   4.342   1.787
 5957SOL    HW217871   4.467   4.185   1.740
 5958SOL     OW17872   5.188   4.910   1.641
 5958SOL    HW117873   5.163   4.926   1.737
 5958SOL    HW217874   5.271   4.960   1.619
 5959SOL     OW17875   4.084   5.450   1.538
 5959SOL    HW117876   4.000   5.503   1.543
 5959SOL    HW217877   4.066   5.356   1.567
 5960SOL     OW17878   5.435   4.573   1.244
 5960SOL    HW117879   5.406   4.498   1.184
 5960SOL    HW217880   5.418   4.660   1.200
 5961SOL     OW17881   4.920   4.048   0.443
 5961SOL    HW117882   4.989   3.979   0.423
 5961SOL    HW217883   4.943   4.094   0.528
 5962SOL     OW17884   4.251   4.452   0.691
 5962SOL    HW117885   4.307   4.534   0.680
 5962SOL    HW217886   4.192   4.440   0.611
 5963SOL     OW17887   5.476   4.092   1.652
 5963SOL    HW117888   5.466   4.082   1.553
 5963SOL    HW217889   5.403   4.041   1.698
 5964SOL     OW17890   5.470   4.681   1.477
 5964SOL    HW117891   5.493   4.775   1.454
 5964SOL    HW217892   5.464   4.627   1.393
 5965SOL     OW17893   4.536   5.160   5.999
 5965SOL    HW117894   4.569   5.098   0.070
 5965SOL    HW217895   4.611   5.218   5.967
 5966SOL     OW17896   4.407   5.516   0.907
 5966SOL    HW117897   4.354   5.598   0.926
 5966SOL    HW217898   4.505   5.536   0.916
 5967SOL     OW17899   4.583   4.690   0.875
 5967SOL    HW117900   4.655   4.626   0.901
 5967SOL    HW217901   4.559   4.747   0.953
 5968SOL     OW17902   4.820   4.724   0.091
 5968SOL    HW117903   4.756   4.697   0.019
 5968SOL    HW217904   4.905   4.673   0.080
 5969SOL     OW17905   5.554   5.291   0.844
 5969SOL    HW117906   5.471   5.266   0.795
 5969SOL    HW217907   5.573   5.222   0.915
 5970SOL     OW17908   3.924   4.995   1.882
 5970SOL    HW117909   3.887   4.915   1.834
 5970SOL    HW217910   3.904   4.988   1.979
 5971SOL     OW17911   3.836   4.952   0.640
 5971SOL    HW117912   3.850   4.917   0.732
 5971SOL    HW217913   3.899   4.908   0.577
 5972SOL     OW17914   4.450   5.103   1.615
 5972SOL    HW117915   4.357   5.092   1.650
 5972SOL    HW217916   4.494   5.181   1.661
 5973SOL     OW17917   5.518   3.895   1.213
 5973SOL    HW117918   5.554   3.804   1.233
 5973SOL    HW217919   5.542   3.921   1.120
 5974SOL     OW17920   4.147   4.159   0.530
 5974SOL    HW117921   4.184   4.085   0.474
 5974SOL    HW217922   4.083   4.122   0.596
 5975SOL     OW17923   5.402   5.202   1.103
 5975SOL    HW117924   5.334   5.180   1.033
 5975SOL    HW217925   5.389   5.141   1.181
 5976SOL     OW17926   4.033   4.274   1.278
 5976SOL    HW117927   4.095   4.227   1.340
 5976SOL    HW217928   4.052   4.247   1.184
 5977SOL     OW17929   4.536   5.279   0.697
 5977SOL    HW117930   4.524   5.332   0.613
 5977SOL    HW217931   4.454   5.224   0.713
 5978SOL     OW17932   5.141   3.950   1.121
 5978SOL    HW117933   5.217   3.905   1.168
 5978SOL    HW217934   5.095   4.012   1.184
 5979SOL     OW17935   4.716   3.750   1.154
 5979SOL    HW117936   4.659   3.700   1.089
 5979SOL    HW217937   4.800   3.698   1.172
 5980SOL     OW17938   4.543   5.010   0.301
 5980SOL    HW117939   4.469   4.953   0.338
 5980SOL    HW217940   4.593   5.054   0.375
 5981SOL     OW17941   4.369   5.281   1.280
 5981SOL    HW117942   4.357   5.359   1.341
 5981SOL    HW217943   4.462   5.282   1.244
 5982SOL     OW17944   5.114   3.745   0.176
 5982SOL    HW117945   5.153   3.687   0.105
 5982SOL    HW217946   5.031   3.703   0.212
 5983SOL     OW17947   5.001   4.159   0.680
 5983SOL    HW117948   4.968   4.253   0.675
 5983SOL    HW217949   5.026   4.137   0.774
 5984SOL     OW17950   5.313   3.905   0.870
 5984SOL    HW117951   5.281   3.932   0.960
 5984SOL    HW217952   5.320   3.985   0.811
 5985SOL     OW17953   3.771   4.868   0.320
 5985SOL    HW117954   3.846   4.828   0.268
 5985SOL    HW217955   3.743   4.805   0.393
 5986SOL     OW17956   4.628   5.398   0.321
 5986SOL    HW117957   4.561   5.403   0.246
 5986SOL    HW217958   4.602   5.462   0.393
 5987SOL     OW17959   3.979   4.366   1.996
 5987SOL    HW117960   3.893   4.391   2.041
 5987SOL    HW217961   3.959   4.324   1.907
 5988SOL     OW17962   3.975   3.994   2.828
 5988SOL    HW117963   4.014   3.969   2.917
 5988SOL    HW217964   3.880   3.963   2.823
 5989SOL     OW17965   3.747   4.114   2.494
 5989SOL    HW117966   3.675   4.144   2.557
 5989SOL    HW217967   3.710   4.043   2.434
 5990SOL     OW17968   4.246   5.014   3.019
 5990SOL    HW117969   4.179   5.045   2.952
 5990SOL    HW217970   4.264   5.087   3.085
 5991SOL     OW17971   5.292   5.253   2.578
 5991SOL    HW117972   5.255   5.215   2.663
 5991SOL    HW217973   5.218   5.293   2.524
 5992SOL     OW17974   4.843   4.422   2.498
 5992SOL    HW117975   4.892   4.509   2.509
 5992SOL    HW217976   4.777   4.413   2.573
 5993SOL     OW17977   5.437   4.374   2.071
 5993SOL    HW117978   5.446   4.364   1.972
 5993SOL    HW217979   5.422   4.284   2.112
 5994SOL     OW17980   4.465   4.886   2.923
 5994SOL    HW117981   4.374   4.910   2.958
 5994SOL    HW217982   4.504   4.965   2.875
 5995SOL     OW17983   4.560   4.536   3.662
 5995SOL    HW117984   4.558   4.627   3.702
 5995SOL    HW217985   4.581   4.543   3.564
 5996SOL     OW17986   4.388   4.707   2.554
 5996SOL    HW117987   4.461   4.710   2.622
 5996SOL    HW217988   4.320   4.776   2.576
 5997SOL     OW17989   4.429   4.871   3.672
 5997SOL    HW117990   4.475   4.960   3.677
 5997SOL    HW217991   4.334   4.885   3.646
 5998SOL     OW17992   4.055   5.182   2.911
 5998SOL    HW117993   3.976   5.135   2.872
 5998SOL    HW217994   4.103   5.232   2.839
 5999SOL     OW17995   5.207   5.246   3.212
 5999SOL    HW117996   5.262   5.329   3.219
 5999SOL    HW217997   5.130   5.252   3.277
 6000SOL     OW17998   4.168   4.152   3.329
 6000SOL    HW117999   4.249   4.094   3.317
 6000SOL    HW218000   4.091   4.095   3.359
 6001SOL     OW18001   5.368   4.188   2.637
 6001SOL    HW118002   5.325   4.223   2.554
 6001SOL    HW218003   5.383   4.264   2.701
 6002SOL     OW18004   3.955   5.434   2.364
 6002SOL    HW118005   3.987   5.517   2.410
 6002SOL    HW218006   4.004   5.422   2.278
 6003SOL     OW18007   4.832   5.057   3.558
 6003SOL    HW118008   4.891   5.063   3.638
 6003SOL    HW218009   4.782   4.970   3.560
 6004SOL     OW18010   3.993   5.167   2.425
 6004SOL    HW118011   3.974   5.265   2.426
 6004SOL    HW218012   3.910   5.117   2.452
 6005SOL     OW18013   3.980   4.811   2.747
 6005SOL    HW118014   3.966   4.717   2.779
 6005SOL    HW218015   3.940   4.874   2.813
 6006SOL     OW18016   4.360   5.510   3.312
 6006SOL    HW118017   4.271   5.491   3.352
 6006SOL    HW218018   4.378   5.608   3.315
 6007SOL     OW18019   4.323   4.669   2.025
 6007SOL    HW118020   4.342   4.728   1.947
 6007SOL    HW218021   4.375   4.701   2.105
 6008SOL     OW18022   5.336   3.859   3.329
 6008SOL    HW118023   5.326   3.945   3.280
 6008SOL    HW218024   5.312   3.872   3.425
 6009SOL     OW18025   3.843   4.368   2.412
 6009SOL    HW118026   3.820   4.274   2.438
 6009SOL    HW218027   3.836   4.427   2.493
 6010SOL     OW18028   5.562   5.469   2.193
 6010SOL    HW118029   5.635   5.427   2.247
 6010SOL    HW218030   5.581   5.566   2.182
 6011SOL     OW18031   3.702   5.318   1.968
 6011SOL    HW118032   3.717   5.223   1.993
 6011SOL    HW218033   3.709   5.376   2.049
 6012SOL     OW18034   5.395   4.659   2.510
 6012SOL    HW118035   5.474   4.613   2.470
 6012SOL    HW218036   5.361   4.729   2.447
 6013SOL     OW18037   5.363   4.873   2.344
 6013SOL    HW118038   5.446   4.855   2.291
 6013SOL    HW218039   5.386   4.920   2.429
 6014SOL     OW18040   3.856   4.461   3.448
 6014SOL    HW118041   3.956   4.460   3.445
 6014SOL    HW218042   3.823   4.553   3.430
 6015SOL     OW18043   4.312   5.113   2.578
 6015SOL    HW118044   4.260   5.028   2.588
 6015SOL    HW218045   4.308   5.142   2.482
 6016SOL     OW18046   5.023   4.936   3.303
 6016SOL    HW118047   5.050   4.885   3.221
 6016SOL    HW218048   5.085   4.914   3.378
 6017SOL     OW18049   4.541   3.713   2.326
 6017SOL    HW118050   4.593   3.799   2.327
 6017SOL    HW218051   4.444   3.733   2.341
 6018SOL     OW18052   3.909   4.666   3.159
 6018SOL    HW118053   3.986   4.630   3.107
 6018SOL    HW218054   3.824   4.626   3.124
 6019SOL     OW18055   5.260   4.704   2.041
 6019SOL    HW118056   5.190   4.649   2.087
 6019SOL    HW218057   5.305   4.764   2.107
 6020SOL     OW18058   4.935   5.535   3.481
 6020SOL    HW118059   4.903   5.573   3.395
 6020SOL    HW218060   4.970   5.442   3.466
 6021SOL     OW18061   4.023   3.959   3.688
 6021SOL    HW118062   4.063   4.050   3.678
 6021SOL    HW218063   3.930   3.967   3.724
 6022SOL     OW18064   5.201   5.142   2.798
 6022SOL    HW118065   5.135   5.162   2.871
 6022SOL    HW218066   5.205   5.043   2.782
 6023SOL     OW18067   5.378   5.481   2.450
 6023SOL    HW118068   5.346   5.447   2.362
 6023SOL    HW218069   5.382   5.406   2.516
 6024SOL     OW18070   4.345   4.424   2.154
 6024SOL    HW118071   4.345   4.504   2.093
 6024SOL    HW218072   4.274   4.434   2.223
 6025SOL     OW18073   5.024   4.099   2.789
 6025SOL    HW118074   4.930   4.065   2.782
 6025SOL    HW218075   5.072   4.048   2.861
 6026SOL     OW18076   5.305   5.399   2.194
 6026SOL    HW118077   5.402   5.418   2.203
 6026SOL    HW218078   5.280   5.391   2.098
 6027SOL     OW18079   4.530   4.326   3.322
 6027SOL    HW118080   4.494   4.297   3.411
 6027SOL    HW218081   4.487   4.271   3.250
 6028SOL     OW18082   5.123   4.238   3.553
 6028SOL    HW118083   5.112   4.281   3.643
 6028SOL    HW218084   5.182   4.158   3.561
 6029SOL     OW18085   4.706   4.591   3.428
 6029SOL    HW118086   4.768   4.523   3.389
 6029SOL    HW218087   4.658   4.639   3.354
 6030SOL     OW18088   4.719   4.088   3.101
 6030SOL    HW118089   4.640   4.146   3.118
 6030SOL    HW218090   4.714   4.050   3.008
 6031SOL     OW18091   4.780   4.407   2.229
 6031SOL    HW118092   4.791   4.425   2.326
 6031SOL    HW218093   4.697   4.352   2.215
 6032SOL     OW18094   3.818   4.536   2.626
 6032SOL    HW118095   3.897   4.517   2.685
 6032SOL    HW218096   3.761   4.607   2.668
 6033SOL     OW18097   3.872   5.573   3.442
 6033SOL    HW118098   3.870   5.545   3.538
 6033SOL    HW218099   3.792   5.629   3.422
 6034SOL     OW18100   4.596   4.061   2.014
 6034SOL    HW118101   4.640   4.120   1.947
 6034SOL    HW218102   4.635   3.969   2.008
 6035SOL     OW18103   5.431   4.334   3.683
 6035SOL    HW118104   5.398   4.418   3.642
 6035SOL    HW218105   5.448   4.266   3.611
 6036SOL     OW18106   5.107   4.881   2.422
 6036SOL    HW118107   5.191   4.871   2.370
 6036SOL    HW218108   5.035   4.918   2.364
 6037SOL     OW18109   4.245   3.884   2.779
 6037SOL    HW118110   4.269   3.915   2.871
 6037SOL    HW218111   4.232   3.963   2.720
 6038SOL     OW18112   4.750   5.206   2.320
 6038SOL    HW118113   4.686   5.259   2.264
 6038SOL    HW218114   4.778   5.261   2.399
 6039SOL     OW18115   4.071   5.514   2.737
 6039SOL    HW118116   4.130   5.434   2.742
 6039SOL    HW218117   4.124   5.596   2.759
 6040SOL     OW18118   5.531   4.796   2.751
 6040SOL    HW118119   5.458   4.793   2.682
 6040SOL    HW218120   5.490   4.793   2.842
 6041SOL     OW18121   4.988   5.267   3.390
 6041SOL    HW118122   4.985   5.170   3.415
 6041SOL    HW218123   4.895   5.298   3.368
 6042SOL     OW18124   4.033   4.715   2.095
 6042SOL    HW118125   4.133   4.717   2.091
 6042SOL    HW218126   4.002   4.620   2.092
 6043SOL     OW18127   5.183   4.465   2.577
 6043SOL    HW118128   5.171   4.414   2.662
 6043SOL    HW218129   5.266   4.520   2.583
 6044SOL     OW18130   4.176   5.012   3.629
 6044SOL    HW118131   4.158   5.019   3.531
 6044SOL    HW218132   4.090   5.002   3.679
 6045SOL     OW18133   4.893   5.497   2.094
 6045SOL    HW118134   4.805   5.470   2.133
 6045SOL    HW218135   4.915   5.437   2.017
 6046SOL     OW18136   3.928   3.977   3.375
 6046SOL    HW118137   3.848   4.025   3.341
 6046SOL    HW218138   3.926   3.975   3.475
 6047SOL     OW18139   5.320   5.087   1.999
 6047SOL    HW118140   5.300   5.179   1.966
 6047SOL    HW218141   5.260   5.021   1.954
 6048SOL     OW18142   4.183   5.447   2.196
 6048SOL    HW118143   4.227   5.514   2.257
 6048SOL    HW218144   4.250   5.413   2.130
 6049SOL     OW18145   5.092   3.855   2.282
 6049SOL    HW118146   5.088   3.835   2.184
 6049SOL    HW218147   5.187   3.859   2.312
 6050SOL     OW18148   3.933   5.517   3.070
 6050SOL    HW118149   3.985   5.438   3.101
 6050SOL    HW218150   3.927   5.515   2.970
 6051SOL     OW18151   4.676   5.431   2.759
 6051SOL    HW118152   4.724   5.363   2.815
 6051SOL    HW218153   4.623   5.384   2.688
 6052SOL     OW18154   4.108   4.415   2.323
 6052SOL    HW118155   4.121   4.317   2.340
 6052SOL    HW218156   4.014   4.441   2.343
 6053SOL     OW18157   5.247   3.973   3.605
 6053SOL    HW118158   5.265   4.004   3.698
 6053SOL    HW218159   5.169   3.910   3.605
 6054SOL     OW18160   4.333   3.818   1.927
 6054SOL    HW118161   4.419   3.770   1.938
 6054SOL    HW218162   4.283   3.781   1.849
 6055SOL     OW18163   4.477   3.997   3.617
 6055SOL    HW118164   4.568   3.957   3.627
 6055SOL    HW218165   4.423   3.976   3.699
 6056SOL     OW18166   4.636   5.258   3.041
 6056SOL    HW118167   4.587   5.214   2.966
 6056SOL    HW218168   4.710   5.199   3.072
 6057SOL     OW18169   5.058   4.329   3.314
 6057SOL    HW118170   5.097   4.299   3.401
 6057SOL    HW218171   5.098   4.417   3.288
 6058SOL     OW18172   4.500   5.109   2.783
 6058SOL    HW118173   4.583   5.146   2.742
 6058SOL    HW218174   4.435   5.086   2.711
 6059SOL     OW18175   4.649   4.230   2.768
 6059SOL    HW118176   4.602   4.205   2.684
 6059SOL    HW218177   4.684   4.147   2.813
 6060SOL     OW18178   4.293   3.795   2.336
 6060SOL    HW118179   4.214   3.794   2.397
 6060SOL    HW218180   4.299   3.885   2.291
 6061SOL     OW18181   5.136   4.914   1.895
 6061SOL    HW118182   5.167   4.824   1.925
 6061SOL    HW218183   5.064   4.947   1.956
 6062SOL     OW18184   4.012   3.768   2.064
 6062SOL    HW118185   4.065   3.825   2.002
 6062SOL    HW218186   4.074   3.704   2.111
 6063SOL     OW18187   4.666   3.949   2.332
 6063SOL    HW118188   4.616   4.002   2.263
 6063SOL    HW218189   4.760   3.981   2.338
 6064SOL     OW18190   4.804   4.378   3.292
 6064SOL    HW118191   4.730   4.311   3.305
 6064SOL    HW218192   4.892   4.332   3.301
 6065SOL     OW18193   4.932   5.271   2.647
 6065SOL    HW118194   4.963   5.322   2.566
 6065SOL    HW218195   4.999   5.281   2.721
 6066SOL     OW18196   4.181   4.870   2.594
 6066SOL    HW118197   4.105   4.841   2.653
 6066SOL    HW218198   4.153   4.867   2.498
 6067SOL     OW18199   5.023   5.537   2.454
 6067SOL    HW118200   5.046   5.602   2.382
 6067SOL    HW218201   4.983   5.586   2.532
 6068SOL     OW18202   4.736   4.248   1.816
 6068SOL    HW118203   4.695   4.338   1.806
 6068SOL    HW218204   4.796   4.247   1.897
 6069SOL     OW18205   3.804   4.265   3.281
 6069SOL    HW118206   3.888   4.253   3.227
 6069SOL    HW218207   3.815   4.344   3.341
 6070SOL     OW18208   4.282   3.946   3.047
 6070SOL    HW118209   4.341   3.885   3.101
 6070SOL    HW218210   4.188   3.939   3.080
 6071SOL     OW18211   4.566   4.136   2.528
 6071SOL    HW118212   4.527   4.191   2.454
 6071SOL    HW218213   4.618   4.060   2.488
 6072SOL     OW18214   4.701   3.791   2.609
 6072SOL    HW118215   4.666   3.759   2.521
 6072SOL    HW218216   4.719   3.712   2.668
 6073SOL     OW18217   5.160   4.868   2.747
 6073SOL    HW118218   5.078   4.820   2.780
 6073SOL    HW218219   5.159   4.869   2.647
 6074SOL     OW18220   5.186   4.334   2.815
 6074SOL    HW118221   5.133   4.249   2.804
 6074SOL    HW218222   5.261   4.318   2.879
 6075SOL     OW18223   5.566   4.548   2.228
 6075SOL    HW118224   5.632   4.499   2.285
 6075SOL    HW218225   5.527   4.485   2.160
 6076SOL     OW18226   4.213   5.131   2.048
 6076SOL    HW118227   4.124   5.111   2.089
 6076SOL    HW218228   4.212   5.106   1.951
 6077SOL     OW18229   5.419   5.019   2.565
 6077SOL    HW118230   5.509   5.035   2.525
 6077SOL    HW218231   5.363   5.101   2.553
 6078SOL     OW18232   5.095   4.313   1.939
 6078SOL    HW118233   5.029   4.268   1.999
 6078SOL    HW218234   5.187   4.301   1.975
 6079SOL     OW18235   4.278   4.010   2.179
 6079SOL    HW118236   4.282   3.939   2.108
 6079SOL    HW218237   4.251   4.097   2.137
 6080SOL     OW18238   5.462   5.003   3.434
 6080SOL    HW118239   5.544   4.949   3.419
 6080SOL    HW218240   5.486   5.088   3.482
 6081SOL     OW18241   4.781   5.051   3.220
 6081SOL    HW118242   4.687   5.033   3.250
 6081SOL    HW218243   4.845   5.010   3.285
 6082SOL     OW18244   5.324   5.368   3.518
 6082SOL    HW118245   5.317   5.396   3.422
 6082SOL    HW218246   5.417   5.335   3.535
 6083SOL     OW18247   4.780   4.892   2.983
 6083SOL    HW118248   4.790   4.952   3.062
 6083SOL    HW218249   4.768   4.947   2.901
 6084SOL     OW18250   5.359   4.810   2.962
 6084SOL    HW118251   5.359   4.887   3.026
 6084SOL    HW218252   5.286   4.823   2.894
 6085SOL     OW18253   4.640   3.800   3.281
 6085SOL    HW118254   4.657   3.771   3.187
 6085SOL    HW218255   4.718   3.855   3.313
 6086SOL     OW18256   4.700   4.819   3.573
 6086SOL    HW118257   4.603   4.836   3.588
 6086SOL    HW218258   4.711   4.743   3.509
 6087SOL     OW18259   4.433   4.790   2.270
 6087SOL    HW118260   4.420   4.769   2.367
 6087SOL    HW218261   4.517   4.747   2.238
 6088SOL     OW18262   4.145   4.520   3.109
 6088SOL    HW118263   4.218   4.531   3.176
 6088SOL    HW218264   4.101   4.431   3.122
 6089SOL     OW18265   5.018   4.149   3.127
 6089SOL    HW118266   5.041   4.220   3.194
 6089SOL    HW218267   4.921   4.154   3.105
 6090SOL     OW18268   3.783   5.273   3.213
 6090SOL    HW118269   3.736   5.342   3.159
 6090SOL    HW218270   3.882   5.285   3.204
 6091SOL     OW18271   4.106   4.860   2.343
 6091SOL    HW118272   4.085   4.931   2.275
 6091SOL    HW218273   4.132   4.776   2.296
 6092SOL     OW18274   4.306   4.252   2.727
 6092SOL    HW118275   4.294   4.326   2.661
 6092SOL    HW218276   4.369   4.281   2.799
 6093SOL     OW18277   4.987   5.077   2.241
 6093SOL    HW118278   5.043   5.147   2.286
 6093SOL    HW218279   4.892   5.088   2.267
 6094SOL     OW18280   5.044   5.179   3.010
 6094SOL    HW118281   5.105   5.193   3.088
 6094SOL    HW218282   4.983   5.102   3.029
 6095SOL     OW18283   5.361   4.364   2.371
 6095SOL    HW118284   5.273   4.390   2.409
 6095SOL    HW218285   5.383   4.424   2.294
 6096SOL     OW18286   4.060   5.271   3.158
 6096SOL    HW118287   4.062   5.228   3.068
 6096SOL    HW218288   4.153   5.297   3.184
 6097SOL     OW18289   4.123   4.443   3.446
 6097SOL    HW118290   4.168   4.505   3.381
 6097SOL    HW218291   4.193   4.387   3.491
 6098SOL     OW18292   5.347   4.536   3.530
 6098SOL    HW118293   5.247   4.541   3.527
 6098SOL    HW218294   5.385   4.583   3.451
 6099SOL     OW18295   4.734   3.867   3.650
 6099SOL    HW118296   4.805   3.922   3.605
 6099SOL    HW218297   4.725   3.779   3.603
 6100SOL     OW18298   4.176   3.730   3.613
 6100SOL    HW118299   4.136   3.685   3.533
 6100SOL    HW218300   4.121   3.809   3.638
 6101SOL     OW18301   4.281   4.577   2.874
 6101SOL    HW118302   4.313   4.671   2.869
 6101SOL    HW218303   4.229   4.563   2.959
 6102SOL     OW18304   5.052   4.547   2.918
 6102SOL    HW118305   4.967   4.552   2.864
 6102SOL    HW218306   5.102   4.464   2.893
 6103SOL     OW18307   4.915   4.213   2.102
 6103SOL    HW118308   4.922   4.136   2.165
 6103SOL    HW218309   4.880   4.293   2.151
 6104SOL     OW18310   4.025   3.930   3.123
 6104SOL    HW118311   3.988   3.939   3.216
 6104SOL    HW218312   4.014   3.836   3.092
 6105SOL     OW18313   3.785   5.002   3.160
 6105SOL    HW118314   3.838   4.958   3.233
 6105SOL    HW218315   3.774   5.099   3.181
 6106SOL     OW18316   4.481   4.363   2.932
 6106SOL    HW118317   4.547   4.328   2.866
 6106SOL    HW218318   4.440   4.447   2.898
 6107SOL     OW18319   5.500   4.685   3.689
 6107SOL    HW118320   5.438   4.630   3.633
 6107SOL    HW218321   5.464   4.693   3.782
 6108SOL     OW18322   4.068   3.784   2.465
 6108SOL    HW118323   4.024   3.870   2.492
 6108SOL    HW218324   4.068   3.721   2.543
 6109SOL     OW18325   5.315   4.136   2.231
 6109SOL    HW118326   5.363   4.063   2.280
 6109SOL    HW218327   5.304   4.215   2.291
 6110SOL     OW18328   4.762   4.501   2.821
 6110SOL    HW118329   4.761   4.515   2.920
 6110SOL    HW218330   4.718   4.413   2.800
 6111SOL     OW18331   4.723   5.306   3.580
 6111SOL    HW118332   4.676   5.342   3.499
 6111SOL    HW218333   4.759   5.215   3.560
 6112SOL     OW18334   5.594   5.246   3.497
 6112SOL    HW118335   5.615   5.222   3.402
 6112SOL    HW218336   5.677   5.277   3.543
 6113SOL     OW18337   4.079   4.660   3.639
 6113SOL    HW118338   4.135   4.665   3.721
 6113SOL    HW218339   4.102   4.577   3.588
 6114SOL     OW18340   5.268   4.002   2.005
 6114SOL    HW118341   5.227   3.911   2.014
 6114SOL    HW218342   5.279   4.042   2.096
 6115SOL     OW18343   5.029   4.569   1.915
 6115SOL    HW118344   5.045   4.470   1.915
 6115SOL    HW218345   5.052   4.605   1.824
 6116SOL     OW18346   4.788   5.082   2.767
 6116SOL    HW118347   4.780   5.007   2.701
 6116SOL    HW218348   4.839   5.157   2.726
 6117SOL     OW18349   4.020   4.498   2.812
 6117SOL    HW118350   4.111   4.534   2.792
 6117SOL    HW218351   4.027   4.401   2.839
 6118SOL     OW18352   4.063   4.237   2.861
 6118SOL    HW118353   4.021   4.148   2.843
 6118SOL    HW218354   4.141   4.249   2.800
 6119SOL     OW18355   4.902   4.080   3.555
 6119SOL    HW118356   4.825   4.131   3.592
 6119SOL    HW218357   4.979   4.142   3.539
 6120SOL     OW18358   4.872   3.915   3.351
 6120SOL    HW118359   4.884   3.980   3.426
 6120SOL    HW218360   4.911   3.953   3.268
 6121SOL     OW18361   3.700   5.060   2.084
 6121SOL    HW118362   3.603   5.068   2.060
 6121SOL    HW218363   3.721   4.965   2.106
 6122SOL     OW18364   3.813   5.523   2.797
 6122SOL    HW118365   3.768   5.441   2.760
 6122SOL    HW218366   3.906   5.529   2.761
 6123SOL     OW18367   4.233   5.309   2.760
 6123SOL    HW118368   4.309   5.374   2.767
 6123SOL    HW218369   4.253   5.240   2.691
 6124SOL     OW18370   4.713   4.519   3.078
 6124SOL    HW118371   4.766   4.506   3.162
 6124SOL    HW218372   4.632   4.461   3.081
 6125SOL     OW18373   3.763   4.280   2.988
 6125SOL    HW118374   3.843   4.294   2.929
 6125SOL    HW218375   3.793   4.259   3.081
 6126SOL     OW18376   3.956   4.247   3.593
 6126SOL    HW118377   4.026   4.231   3.523
 6126SOL    HW218378   3.900   4.325   3.567
 6127SOL     OW18379   5.101   4.645   3.518
 6127SOL    HW118380   5.130   4.741   3.522
 6127SOL    HW218381   5.089   4.617   3.423
 6128SOL     OW18382   4.559   4.267   2.183
 6128SOL    HW118383   4.558   4.191   2.119
 6128SOL    HW218384   4.472   4.317   2.178
 6129SOL     OW18385   5.359   4.298   3.024
 6129SOL    HW118386   5.344   4.263   3.116
 6129SOL    HW218387   5.451   4.272   2.993
 6130SOL     OW18388   3.962   5.241   3.602
 6130SOL    HW118389   3.969   5.315   3.668
 6130SOL    HW218390   3.949   5.154   3.650
 6131SOL     OW18391   4.427   4.184   3.123
 6131SOL    HW118392   4.377   4.101   3.100
 6131SOL    HW218393   4.427   4.245   3.043
 6132SOL     OW18394   4.629   5.361   3.325
 6132SOL    HW118395   4.640   5.319   3.235
 6132SOL    HW218396   4.621   5.460   3.316
 6133SOL     OW18397   4.223   4.226   2.014
 6133SOL    HW118398   4.287   4.286   2.061
 6133SOL    HW218399   4.131   4.266   2.016
 6134SOL     OW18400   3.913   4.856   3.339
 6134SOL    HW118401   3.882   4.823   3.427
 6134SOL    HW218402   3.910   4.782   3.272
 6135SOL     OW18403   5.032   4.754   3.081
 6135SOL    HW118404   5.050   4.678   3.018
 6135SOL    HW218405   4.937   4.782   3.073
 6136SOL     OW18406   5.025   4.620   2.168
 6136SOL    HW118407   4.951   4.569   2.211
 6136SOL    HW218408   5.028   4.599   2.070
 6137SOL     OW18409   5.541   5.437   3.029
 6137SOL    HW118410   5.601   5.475   2.958
 6137SOL    HW218411   5.485   5.364   2.991
 6138SOL     OW18412   4.944   5.430   3.017
 6138SOL    HW118413   5.003   5.497   2.971
 6138SOL    HW218414   4.984   5.339   3.009
 6139SOL     OW18415   3.837   4.986   2.898
 6139SOL    HW118416   3.821   4.986   2.996
 6139SOL    HW218417   3.761   4.939   2.852
 6140SOL     OW18418   4.430   5.390   3.588
 6140SOL    HW118419   4.337   5.429   3.588
 6140SOL    HW218420   4.473   5.406   3.500
 6141SOL     OW18421   5.466   3.889   2.371
 6141SOL    HW118422   5.551   3.865   2.324
 6141SOL    HW218423   5.425   3.806   2.411
 6142SOL     OW18424   5.091   5.307   2.344
 6142SOL    HW118425   5.167   5.325   2.280
 6142SOL    HW218426   5.053   5.394   2.376
 6143SOL     OW18427   3.853   5.512   3.699
 6143SOL    HW118428   3.781   5.449   3.729
 6143SOL    HW218429   3.889   5.561   3.779
 6144SOL     OW18430   4.999   4.644   2.511
 6144SOL    HW118431   5.068   4.573   2.526
 6144SOL    HW218432   5.044   4.733   2.502
 6145SOL     OW18433   4.505   4.974   3.263
 6145SOL    HW118434   4.482   5.030   3.343
 6145SOL    HW218435   4.439   4.992   3.190
 6146SOL     OW18436   4.368   5.341   2.022
 6146SOL    HW118437   4.402   5.342   1.928
 6146SOL    HW218438   4.314   5.259   2.038
 6147SOL     OW18439   5.350   5.485   3.242
 6147SOL    HW118440   5.423   5.484   3.174
 6147SOL    HW218441   5.322   5.579   3.261
 6148SOL     OW18442   5.583   3.902   2.807
 6148SOL    HW118443   5.601   3.804   2.798
 6148SOL    HW218444   5.488   3.921   2.786
 6149SOL     OW18445   3.979   4.013   2.555
 6149SOL    HW118446   3.890   4.050   2.529
 6149SOL    HW218447   3.985   4.009   2.655
 6150SOL     OW18448   4.949   5.329   1.885
 6150SOL    HW118449   4.913   5.243   1.920
 6150SOL    HW218450   4.900   5.354   1.801
 6151SOL     OW18451   4.577   4.723   3.236
 6151SOL    HW118452   4.620   4.715   3.146
 6151SOL    HW218453   4.540   4.815   3.248
 6152SOL     OW18454   4.632   4.646   2.141
 6152SOL    HW118455   4.704   4.692   2.090
 6152SOL    HW218456   4.647   4.547   2.140
 6153SOL     OW18457   5.232   5.361   1.927
 6153SOL    HW118458   5.134   5.342   1.931
 6153SOL    HW218459   5.261   5.368   1.831
 6154SOL     OW18460   4.093   5.039   3.385
 6154SOL    HW118461   4.086   5.102   3.308
 6154SOL    HW218462   4.027   4.964   3.373
 6155SOL     OW18463   5.338   5.012   3.166
 6155SOL    HW118464   5.397   4.992   3.244
 6155SOL    HW218465   5.275   5.086   3.189
 6156SOL     OW18466   4.742   4.872   2.594
 6156SOL    HW118467   4.691   4.792   2.623
 6156SOL    HW218468   4.798   4.849   2.514
 6157SOL     OW18469   4.711   3.968   2.842
 6157SOL    HW118470   4.689   3.935   2.750
 6157SOL    HW218471   4.709   3.892   2.906
 6158SOL     OW18472   4.342   5.199   2.305
 6158SOL    HW118473   4.355   5.132   2.232
 6158SOL    HW218474   4.264   5.258   2.284
 6159SOL     OW18475   5.431   4.120   3.230
 6159SOL    HW118476   5.507   4.180   3.252
 6159SOL    HW218477   5.461   4.049   3.166
 6160SOL     OW18478   3.972   5.088   2.156
 6160SOL    HW118479   3.881   5.097   2.117
 6160SOL    HW218480   3.972   5.121   2.251
 6161SOL     OW18481   3.847   4.783   3.580
 6161SOL    HW118482   3.769   4.747   3.629
 6161SOL    HW218483   3.929   4.732   3.604
 6162SOL     OW18484   4.403   3.922   3.342
 6162SOL    HW118485   4.489   3.880   3.313
 6162SOL    HW218486   4.419   3.976   3.425
 6163SOL     OW18487   3.780   4.067   1.897
 6163SOL    HW118488   3.694   4.034   1.859
 6163SOL    HW218489   3.810   4.148   1.846
 6164SOL     OW18490   5.159   4.577   3.260
 6164SOL    HW118491   5.097   4.631   3.202
 6164SOL    HW218492   5.253   4.590   3.230
 6165SOL     OW18493   3.780   3.879   2.173
 6165SOL    HW118494   3.743   3.955   2.119
 6165SOL    HW218495   3.874   3.862   2.146
 6166SOL     OW18496   4.899   5.078   1.989
 6166SOL    HW118497   4.847   4.993   1.981
 6166SOL    HW218498   4.934   5.087   2.082
 6167SOL     OW18499   4.348   4.527   3.302
 6167SOL    HW118500   4.400   4.608   3.276
 6167SOL    HW218501   4.411   4.455   3.333
 6168SOL     OW18502   5.216   5.510   2.844
 6168SOL    HW118503   5.221   5.597   2.794
 6168SOL    HW218504   5.284   5.509   2.917
 6169SOL     OW18505   4.444   4.276   3.568
 6169SOL    HW118506   4.463   4.338   3.644
 6169SOL    HW218507   4.466   4.183   3.595
 6170SOL     OW18508   5.189   4.908   3.501
 6170SOL    HW118509   5.165   4.925   3.596
 6170SOL    HW218510   5.273   4.958   3.479
 6171SOL     OW18511   4.103   5.445   3.410
 6171SOL    HW118512   4.021   5.503   3.406
 6171SOL    HW218513   4.077   5.350   3.426
 6172SOL     OW18514   5.427   4.588   3.092
 6172SOL    HW118515   5.401   4.508   3.037
 6172SOL    HW218516   5.404   4.671   3.042
 6173SOL     OW18517   4.921   4.049   2.319
 6173SOL    HW118518   4.985   3.975   2.300
 6173SOL    HW218519   4.954   4.102   2.398
 6174SOL     OW18520   4.248   4.459   2.563
 6174SOL    HW118521   4.307   4.539   2.558
 6174SOL    HW218522   4.200   4.447   2.475
 6175SOL     OW18523   5.472   4.108   3.517
 6175SOL    HW118524   5.455   4.122   3.419
 6175SOL    HW218525   5.403   4.047   3.555
 6176SOL     OW18526   5.465   4.679   3.332
 6176SOL    HW118527   5.479   4.777   3.313
 6176SOL    HW218528   5.455   4.630   3.246
 6177SOL     OW18529   4.573   5.123   1.877
 6177SOL    HW118530   4.582   5.111   1.976
 6177SOL    HW218531   4.635   5.195   1.846
 6178SOL     OW18532   4.401   5.520   2.776
 6178SOL    HW118533   4.355   5.603   2.806
 6178SOL    HW218534   4.500   5.530   2.791
 6179SOL     OW18535   4.584   4.698   2.737
 6179SOL    HW118536   4.659   4.634   2.756
 6179SOL    HW218537   4.556   4.743   2.822
 6180SOL     OW18538   4.808   4.749   1.941
 6180SOL    HW118539   4.772   4.775   1.852
 6180SOL    HW218540   4.875   4.675   1.930
 6181SOL     OW18541   5.554   5.284   2.725
 6181SOL    HW118542   5.473   5.276   2.667
 6181SOL    HW218543   5.548   5.220   2.801
 6182SOL     OW18544   3.924   4.992   3.741
 6182SOL    HW118545   3.890   4.910   3.694
 6182SOL    HW218546   3.898   4.987   3.838
 6183SOL     OW18547   3.842   4.946   2.486
 6183SOL    HW118548   3.843   4.917   2.582
 6183SOL    HW218549   3.924   4.911   2.440
 6184SOL     OW18550   4.452   5.107   3.481
 6184SOL    HW118551   4.359   5.108   3.517
 6184SOL    HW218552   4.508   5.173   3.532
 6185SOL     OW18553   5.511   3.904   3.079
 6185SOL    HW118554   5.546   3.816   3.111
 6185SOL    HW218555   5.544   3.920   2.985
 6186SOL     OW18556   4.126   4.153   2.380
 6186SOL    HW118557   4.176   4.082   2.332
 6186SOL    HW218558   4.064   4.111   2.447
 6187SOL     OW18559   5.415   5.192   2.971
 6187SOL    HW118560   5.341   5.178   2.904
 6187SOL    HW218561   5.400   5.134   3.050
 6188SOL     OW18562   4.033   4.277   3.131
 6188SOL    HW118563   4.094   4.229   3.195
 6188SOL    HW218564   4.054   4.249   3.037
 6189SOL     OW18565   4.537   5.280   2.567
 6189SOL    HW118566   4.546   5.301   2.470
 6189SOL    HW218567   4.449   5.236   2.584
 6190SOL     OW18568   5.138   3.957   2.985
 6190SOL    HW118569   5.211   3.904   3.029
 6190SOL    HW218570   5.094   4.016   3.052
 6191SOL     OW18571   4.718   3.744   3.032
 6191SOL    HW118572   4.657   3.684   2.979
 6191SOL    HW218573   4.804   3.696   3.051
 6192SOL     OW18574   4.565   5.005   2.196
 6192SOL    HW118575   4.494   4.939   2.220
 6192SOL    HW218576   4.602   5.046   2.279
 6193SOL     OW18577   4.371   5.280   3.151
 6193SOL    HW118578   4.361   5.357   3.214
 6193SOL    HW218579   4.462   5.282   3.109
 6194SOL     OW18580   5.107   3.779   2.020
 6194SOL    HW118581   5.138   3.743   1.932
 6194SOL    HW218582   5.034   3.720   2.055
 6195SOL     OW18583   5.039   4.176   2.531
 6195SOL    HW118584   4.990   4.264   2.529
 6195SOL    HW218585   5.043   4.143   2.626
 6196SOL     OW18586   5.318   3.948   2.758
 6196SOL    HW118587   5.260   3.965   2.837
 6196SOL    HW218588   5.322   4.030   2.701
 6197SOL     OW18589   3.761   4.815   2.152
 6197SOL    HW118590   3.861   4.808   2.151
 6197SOL    HW218591   3.721   4.724   2.149
 6198SOL     OW18592   4.609   5.357   2.148
 6198SOL    HW118593   4.523   5.343   2.098
 6198SOL    HW218594   4.598   5.432   2.213
 6199SOL     OW18595   3.979   4.365   3.858
 6199SOL    HW118596   3.893   4.391   3.902
 6199SOL    HW218597   3.959   4.326   3.768
 6200SOL     OW18598   3.973   3.996   4.691
 6200SOL    HW118599   4.010   3.970   4.780
 6200SOL    HW218600   3.878   3.965   4.684
 6201SOL     OW18601   3.745   4.112   4.354
 6201SOL    HW118602   3.674   4.148   4.414
 6201SOL    HW218603   3.706   4.044   4.292
 6202SOL     OW18604   4.247   5.016   4.887
 6202SOL    HW118605   4.180   5.039   4.815
 6202SOL    HW218606   4.263   5.096   4.944
 6203SOL     OW18607   5.291   5.254   4.437
 6203SOL    HW118608   5.250   5.219   4.522
 6203SOL    HW218609   5.218   5.278   4.373
 6204SOL     OW18610   4.846   4.421   4.360
 6204SOL    HW118611   4.895   4.507   4.373
 6204SOL    HW218612   4.769   4.416   4.424
 6205SOL     OW18613   5.435   4.380   3.941
 6205SOL    HW118614   5.440   4.370   3.841
 6205SOL    HW218615   5.431   4.290   3.984
 6206SOL     OW18616   4.468   4.885   4.782
 6206SOL    HW118617   4.378   4.908   4.819
 6206SOL    HW218618   4.508   4.965   4.739
 6207SOL     OW18619   4.549   4.517   5.546
 6207SOL    HW118620   4.534   4.586   5.617
 6207SOL    HW218621   4.593   4.560   5.467
 6208SOL     OW18622   4.392   4.707   4.420
 6208SOL    HW118623   4.466   4.713   4.487
 6208SOL    HW218624   4.322   4.775   4.441
 6209SOL     OW18625   4.425   4.878   5.530
 6209SOL    HW118626   4.478   4.961   5.547
 6209SOL    HW218627   4.328   4.901   5.524
 6210SOL     OW18628   4.052   5.184   4.775
 6210SOL    HW118629   3.974   5.141   4.728
 6210SOL    HW218630   4.106   5.236   4.709
 6211SOL     OW18631   5.208   5.251   5.076
 6211SOL    HW118632   5.262   5.335   5.087
 6211SOL    HW218633   5.129   5.254   5.136
 6212SOL     OW18634   4.170   4.145   5.191
 6212SOL    HW118635   4.248   4.083   5.187
 6212SOL    HW218636   4.089   4.096   5.225
 6213SOL     OW18637   5.358   4.185   4.500
 6213SOL    HW118638   5.323   4.222   4.414
 6213SOL    HW218639   5.342   4.251   4.573
 6214SOL     OW18640   3.959   5.431   4.227
 6214SOL    HW118641   3.991   5.514   4.272
 6214SOL    HW218642   4.004   5.421   4.138
 6215SOL     OW18643   4.836   5.058   5.427
 6215SOL    HW118644   4.917   5.044   5.484
 6215SOL    HW218645   4.783   4.973   5.425
 6216SOL     OW18646   4.002   5.159   4.286
 6216SOL    HW118647   3.981   5.257   4.288
 6216SOL    HW218648   3.920   5.107   4.312
 6217SOL     OW18649   3.979   4.814   4.613
 6217SOL    HW118650   3.963   4.720   4.645
 6217SOL    HW218651   3.937   4.878   4.678
 6218SOL     OW18652   4.357   5.503   5.176
 6218SOL    HW118653   4.264   5.485   5.208
 6218SOL    HW218654   4.377   5.601   5.185
 6219SOL     OW18655   4.325   4.672   3.884
 6219SOL    HW118656   4.345   4.731   3.806
 6219SOL    HW218657   4.378   4.703   3.963
 6220SOL     OW18658   5.344   3.861   5.184
 6220SOL    HW118659   5.327   3.948   5.137
 6220SOL    HW218660   5.323   3.872   5.281
 6221SOL     OW18661   3.843   4.361   4.276
 6221SOL    HW118662   3.820   4.268   4.304
 6221SOL    HW218663   3.839   4.422   4.356
 6222SOL     OW18664   5.564   5.470   4.053
 6222SOL    HW118665   5.636   5.429   4.108
 6222SOL    HW218666   5.581   5.568   4.042
 6223SOL     OW18667   3.702   5.322   3.827
 6223SOL    HW118668   3.717   5.225   3.847
 6223SOL    HW218669   3.713   5.376   3.911
 6224SOL     OW18670   5.395   4.662   4.382
 6224SOL    HW118671   5.477   4.617   4.346
 6224SOL    HW218672   5.363   4.730   4.316
 6225SOL     OW18673   5.362   4.873   4.208
 6225SOL    HW118674   5.445   4.856   4.155
 6225SOL    HW218675   5.385   4.922   4.292
 6226SOL     OW18676   3.853   4.467   5.312
 6226SOL    HW118677   3.953   4.470   5.307
 6226SOL    HW218678   3.816   4.557   5.289
 6227SOL     OW18679   4.315   5.110   4.441
 6227SOL    HW118680   4.261   5.026   4.452
 6227SOL    HW218681   4.309   5.142   4.346
 6228SOL     OW18682   5.001   4.945   5.166
 6228SOL    HW118683   5.028   4.889   5.087
 6228SOL    HW218684   5.060   4.922   5.244
 6229SOL     OW18685   4.542   3.704   4.195
 6229SOL    HW118686   4.589   3.792   4.200
 6229SOL    HW218687   4.444   3.717   4.207
 6230SOL     OW18688   3.910   4.668   5.005
 6230SOL    HW118689   3.990   4.627   4.961
 6230SOL    HW218690   3.827   4.625   4.969
 6231SOL     OW18691   5.258   4.706   3.905
 6231SOL    HW118692   5.191   4.650   3.954
 6231SOL    HW218693   5.305   4.765   3.970
 6232SOL     OW18694   4.928   5.526   5.340
 6232SOL    HW118695   4.898   5.571   5.257
 6232SOL    HW218696   4.951   5.431   5.321
 6233SOL     OW18697   4.027   3.963   5.559
 6233SOL    HW118698   4.062   4.055   5.577
 6233SOL    HW218699   3.930   3.959   5.584
 6234SOL     OW18700   5.199   5.150   4.661
 6234SOL    HW118701   5.133   5.166   4.735
 6234SOL    HW218702   5.205   5.052   4.643
 6235SOL     OW18703   5.377   5.483   4.309
 6235SOL    HW118704   5.348   5.449   4.219
 6235SOL    HW218705   5.374   5.408   4.375
 6236SOL     OW18706   4.344   4.426   4.015
 6236SOL    HW118707   4.342   4.504   3.953
 6236SOL    HW218708   4.272   4.436   4.084
 6237SOL     OW18709   5.026   4.104   4.655
 6237SOL    HW118710   4.931   4.073   4.652
 6237SOL    HW218711   5.076   4.051   4.722
 6238SOL     OW18712   5.308   5.397   4.056
 6238SOL    HW118713   5.406   5.419   4.064
 6238SOL    HW218714   5.284   5.389   3.960
 6239SOL     OW18715   4.532   4.328   5.185
 6239SOL    HW118716   4.497   4.304   5.275
 6239SOL    HW218717   4.494   4.265   5.117
 6240SOL     OW18718   5.124   4.219   5.417
 6240SOL    HW118719   5.113   4.259   5.508
 6240SOL    HW218720   5.183   4.138   5.423
 6241SOL     OW18721   4.700   4.591   5.293
 6241SOL    HW118722   4.758   4.519   5.254
 6241SOL    HW218723   4.648   4.634   5.220
 6242SOL     OW18724   4.723   4.089   4.965
 6242SOL    HW118725   4.640   4.143   4.979
 6242SOL    HW218726   4.719   4.044   4.876
 6243SOL     OW18727   4.778   4.412   4.091
 6243SOL    HW118728   4.799   4.419   4.189
 6243SOL    HW218729   4.693   4.360   4.079
 6244SOL     OW18730   3.824   4.540   4.487
 6244SOL    HW118731   3.901   4.518   4.548
 6244SOL    HW218732   3.765   4.607   4.532
 6245SOL     OW18733   3.835   5.570   5.303
 6245SOL    HW118734   3.845   5.564   5.403
 6245SOL    HW218735   3.743   5.602   5.282
 6246SOL     OW18736   4.592   4.060   3.876
 6246SOL    HW118737   4.635   4.122   3.811
 6246SOL    HW218738   4.633   3.969   3.868
 6247SOL     OW18739   5.424   4.329   5.552
 6247SOL    HW118740   5.404   4.415   5.505
 6247SOL    HW218741   5.444   4.257   5.485
 6248SOL     OW18742   5.107   4.882   4.287
 6248SOL    HW118743   5.191   4.872   4.235
 6248SOL    HW218744   5.036   4.920   4.228
 6249SOL     OW18745   4.252   3.889   4.651
 6249SOL    HW118746   4.271   3.923   4.743
 6249SOL    HW218747   4.248   3.966   4.587
 6250SOL     OW18748   4.752   5.207   4.178
 6250SOL    HW118749   4.685   5.259   4.124
 6250SOL    HW218750   4.781   5.262   4.256
 6251SOL     OW18751   4.069   5.515   4.606
 6251SOL    HW118752   4.125   5.432   4.611
 6251SOL    HW218753   4.126   5.595   4.624
 6252SOL     OW18754   5.531   4.806   4.621
 6252SOL    HW118755   5.461   4.799   4.550
 6252SOL    HW218756   5.488   4.799   4.711
 6253SOL     OW18757   4.978   5.263   5.223
 6253SOL    HW118758   4.983   5.171   5.261
 6253SOL    HW218759   4.883   5.285   5.200
 6254SOL     OW18760   4.041   4.718   3.957
 6254SOL    HW118761   4.141   4.718   3.952
 6254SOL    HW218762   4.007   4.625   3.953
 6255SOL     OW18763   5.183   4.472   4.443
 6255SOL    HW118764   5.177   4.417   4.526
 6255SOL    HW218765   5.270   4.521   4.442
 6256SOL     OW18766   4.170   5.004   5.503
 6256SOL    HW118767   4.161   5.005   5.403
 6256SOL    HW218768   4.079   5.007   5.544
 6257SOL     OW18769   4.892   5.503   3.954
 6257SOL    HW118770   4.804   5.475   3.994
 6257SOL    HW218771   4.916   5.440   3.880
 6258SOL     OW18772   3.930   3.992   5.245
 6258SOL    HW118773   3.847   4.037   5.212
 6258SOL    HW218774   3.923   3.978   5.344
 6259SOL     OW18775   5.316   5.088   3.861
 6259SOL    HW118776   5.296   5.180   3.826
 6259SOL    HW218777   5.258   5.021   3.815
 6260SOL     OW18778   4.181   5.459   4.052
 6260SOL    HW118779   4.225   5.521   4.117
 6260SOL    HW218780   4.250   5.417   3.993
 6261SOL     OW18781   5.090   3.856   4.141
 6261SOL    HW118782   5.088   3.836   4.043
 6261SOL    HW218783   5.184   3.861   4.173
 6262SOL     OW18784   3.927   5.506   4.926
 6262SOL    HW118785   3.982   5.430   4.960
 6262SOL    HW218786   3.928   5.505   4.826
 6263SOL     OW18787   4.673   5.435   4.616
 6263SOL    HW118788   4.723   5.371   4.674
 6263SOL    HW218789   4.622   5.384   4.546
 6264SOL     OW18790   4.114   4.415   4.186
 6264SOL    HW118791   4.122   4.317   4.204
 6264SOL    HW218792   4.019   4.444   4.202
 6265SOL     OW18793   5.245   3.970   5.452
 6265SOL    HW118794   5.251   3.990   5.549
 6265SOL    HW218795   5.173   3.901   5.436
 6266SOL     OW18796   4.329   3.822   3.794
 6266SOL    HW118797   4.419   3.778   3.798
 6266SOL    HW218798   4.278   3.785   3.716
 6267SOL     OW18799   4.467   4.012   5.485
 6267SOL    HW118800   4.554   3.962   5.484
 6267SOL    HW218801   4.411   3.980   5.561
 6268SOL     OW18802   4.636   5.251   4.896
 6268SOL    HW118803   4.589   5.203   4.821
 6268SOL    HW218804   4.706   5.192   4.935
 6269SOL     OW18805   5.070   4.321   5.170
 6269SOL    HW118806   5.100   4.298   5.262
 6269SOL    HW218807   5.102   4.413   5.146
 6270SOL     OW18808   4.502   5.110   4.654
 6270SOL    HW118809   4.585   5.145   4.611
 6270SOL    HW218810   4.437   5.082   4.583
 6271SOL     OW18811   4.650   4.232   4.635
 6271SOL    HW118812   4.604   4.205   4.551
 6271SOL    HW218813   4.681   4.150   4.684
 6272SOL     OW18814   4.292   3.794   4.198
 6272SOL    HW118815   4.212   3.793   4.259
 6272SOL    HW218816   4.299   3.883   4.153
 6273SOL     OW18817   5.139   4.912   3.757
 6273SOL    HW118818   5.169   4.821   3.786
 6273SOL    HW218819   5.068   4.944   3.819
 6274SOL     OW18820   4.014   3.767   3.931
 6274SOL    HW118821   4.068   3.824   3.868
 6274SOL    HW218822   4.073   3.702   3.977
 6275SOL     OW18823   4.660   3.946   4.189
 6275SOL    HW118824   4.615   3.994   4.113
 6275SOL    HW218825   4.753   3.981   4.200
 6276SOL     OW18826   4.809   4.376   5.153
 6276SOL    HW118827   4.728   4.321   5.169
 6276SOL    HW218828   4.891   4.319   5.160
 6277SOL     OW18829   4.930   5.273   4.506
 6277SOL    HW118830   4.963   5.327   4.428
 6277SOL    HW218831   4.996   5.279   4.580
 6278SOL     OW18832   4.183   4.866   4.457
 6278SOL    HW118833   4.106   4.838   4.514
 6278SOL    HW218834   4.157   4.861   4.361
 6279SOL     OW18835   5.024   5.539   4.320
 6279SOL    HW118836   5.049   5.604   4.248
 6279SOL    HW218837   4.984   5.588   4.397
 6280SOL     OW18838   4.729   4.253   3.678
 6280SOL    HW118839   4.692   4.345   3.665
 6280SOL    HW218840   4.787   4.251   3.759
 6281SOL     OW18841   3.804   4.266   5.147
 6281SOL    HW118842   3.886   4.254   5.091
 6281SOL    HW218843   3.817   4.345   5.207
 6282SOL     OW18844   4.279   3.960   4.918
 6282SOL    HW118845   4.336   3.893   4.966
 6282SOL    HW218846   4.182   3.941   4.938
 6283SOL     OW18847   4.570   4.140   4.392
 6283SOL    HW118848   4.526   4.190   4.318
 6283SOL    HW218849   4.621   4.062   4.354
 6284SOL     OW18850   4.696   3.796   4.473
 6284SOL    HW118851   4.668   3.761   4.384
 6284SOL    HW218852   4.715   3.720   4.534
 6285SOL     OW18853   5.169   4.868   4.612
 6285SOL    HW118854   5.082   4.824   4.635
 6285SOL    HW218855   5.188   4.855   4.515
 6286SOL     OW18856   5.188   4.338   4.677
 6286SOL    HW118857   5.129   4.258   4.672
 6286SOL    HW218858   5.259   4.322   4.745
 6287SOL     OW18859   5.576   4.556   4.084
 6287SOL    HW118860   5.640   4.507   4.144
 6287SOL    HW218861   5.530   4.490   4.024
 6288SOL     OW18862   4.216   5.131   3.912
 6288SOL    HW118863   4.126   5.110   3.951
 6288SOL    HW218864   4.217   5.108   3.815
 6289SOL     OW18865   5.421   5.023   4.426
 6289SOL    HW118866   5.513   5.040   4.390
 6289SOL    HW218867   5.364   5.104   4.413
 6290SOL     OW18868   5.099   4.316   3.811
 6290SOL    HW118869   5.032   4.269   3.868
 6290SOL    HW218870   5.191   4.300   3.847
 6291SOL     OW18871   4.275   4.010   4.039
 6291SOL    HW118872   4.282   3.940   3.969
 6291SOL    HW218873   4.253   4.098   3.997
 6292SOL     OW18874   5.452   5.010   5.298
 6292SOL    HW118875   5.537   4.958   5.288
 6292SOL    HW218876   5.461   5.074   5.374
 6293SOL     OW18877   4.773   5.051   5.069
 6293SOL    HW118878   4.687   5.034   5.117
 6293SOL    HW218879   4.849   5.010   5.119
 6294SOL     OW18880   5.342   5.376   5.377
 6294SOL    HW118881   5.335   5.406   5.282
 6294SOL    HW218882   5.433   5.339   5.393
 6295SOL     OW18883   4.783   4.894   4.850
 6295SOL    HW118884   4.777   4.956   4.928
 6295SOL    HW218885   4.769   4.945   4.765
 6296SOL     OW18886   5.362   4.812   4.828
 6296SOL    HW118887   5.361   4.890   4.891
 6296SOL    HW218888   5.291   4.824   4.758
 6297SOL     OW18889   4.639   3.801   5.143
 6297SOL    HW118890   4.654   3.779   5.046
 6297SOL    HW218891   4.714   3.860   5.175
 6298SOL     OW18892   4.703   4.825   5.446
 6298SOL    HW118893   4.604   4.837   5.455
 6298SOL    HW218894   4.722   4.751   5.381
 6299SOL     OW18895   4.454   4.793   4.140
 6299SOL    HW118896   4.451   4.770   4.237
 6299SOL    HW218897   4.529   4.744   4.096
 6300SOL     OW18898   4.137   4.513   4.965
 6300SOL    HW118899   4.209   4.525   5.034
 6300SOL    HW218900   4.089   4.428   4.982
 6301SOL     OW18901   5.012   4.141   4.988
 6301SOL    HW118902   5.044   4.212   5.050
 6301SOL    HW218903   4.915   4.156   4.967
 6302SOL     OW18904   3.782   5.267   5.070
 6302SOL    HW118905   3.735   5.339   5.019
 6302SOL    HW218906   3.880   5.284   5.070
 6303SOL     OW18907   4.109   4.860   4.205
 6303SOL    HW118908   4.093   4.934   4.139
 6303SOL    HW218909   4.129   4.775   4.155
 6304SOL     OW18910   4.306   4.251   4.588
 6304SOL    HW118911   4.295   4.326   4.523
 6304SOL    HW218912   4.370   4.279   4.660
 6305SOL     OW18913   4.988   5.074   4.105
 6305SOL    HW118914   5.049   5.144   4.143
 6305SOL    HW218915   4.894   5.094   4.132
 6306SOL     OW18916   5.037   5.173   4.868
 6306SOL    HW118917   5.094   5.190   4.948
 6306SOL    HW218918   4.980   5.092   4.883
 6307SOL     OW18919   5.361   4.370   4.234
 6307SOL    HW118920   5.267   4.391   4.262
 6307SOL    HW218921   5.385   4.426   4.155
 6308SOL     OW18922   4.058   5.268   5.026
 6308SOL    HW118923   4.060   5.226   4.935
 6308SOL    HW218924   4.151   5.295   5.052
 6309SOL     OW18925   4.118   4.444   5.300
 6309SOL    HW118926   4.171   4.498   5.234
 6309SOL    HW218927   4.181   4.388   5.355
 6310SOL     OW18928   5.361   4.533   5.395
 6310SOL    HW118929   5.268   4.506   5.370
 6310SOL    HW218930   5.397   4.596   5.326
 6311SOL     OW18931   4.705   3.886   5.483
 6311SOL    HW118932   4.786   3.942   5.471
 6311SOL    HW218933   4.720   3.796   5.440
 6312SOL     OW18934   4.180   3.727   5.486
 6312SOL    HW118935   4.154   3.688   5.398
 6312SOL    HW218936   4.125   3.809   5.503
 6313SOL     OW18937   4.288   4.573   4.738
 6313SOL    HW118938   4.320   4.668   4.739
 6313SOL    HW218939   4.232   4.555   4.818
 6314SOL     OW18940   5.043   4.560   4.784
 6314SOL    HW118941   4.960   4.564   4.728
 6314SOL    HW218942   5.095   4.478   4.760
 6315SOL     OW18943   4.915   4.208   3.976
 6315SOL    HW118944   4.915   4.132   4.042
 6315SOL    HW218945   4.876   4.289   4.020
 6316SOL     OW18946   4.016   3.926   4.960
 6316SOL    HW118947   3.984   3.949   5.052
 6316SOL    HW218948   4.005   3.828   4.944
 6317SOL     OW18949   3.777   4.997   5.016
 6317SOL    HW118950   3.837   4.953   5.083
 6317SOL    HW218951   3.772   5.095   5.035
 6318SOL     OW18952   4.476   4.364   4.793
 6318SOL    HW118953   4.545   4.330   4.729
 6318SOL    HW218954   4.434   4.447   4.756
 6319SOL     OW18955   5.436   4.718   5.583
 6319SOL    HW118956   5.405   4.645   5.522
 6319SOL    HW218957   5.369   4.730   5.656
 6320SOL     OW18958   4.069   3.781   4.333
 6320SOL    HW118959   4.023   3.867   4.355
 6320SOL    HW218960   4.070   3.722   4.414
 6321SOL     OW18961   5.313   4.140   4.098
 6321SOL    HW118962   5.362   4.068   4.146
 6321SOL    HW218963   5.302   4.219   4.158
 6322SOL     OW18964   4.770   4.500   4.682
 6322SOL    HW118965   4.763   4.517   4.780
 6322SOL    HW218966   4.723   4.414   4.659
 6323SOL     OW18967   4.717   5.303   5.445
 6323SOL    HW118968   4.679   5.341   5.361
 6323SOL    HW218969   4.756   5.213   5.426
 6324SOL     OW18970   5.608   5.247   5.360
 6324SOL    HW118971   5.620   5.210   5.269
 6324SOL    HW218972   5.697   5.273   5.398
 6325SOL     OW18973   4.088   4.629   5.534
 6325SOL    HW118974   4.174   4.643   5.581
 6325SOL    HW218975   4.103   4.571   5.454
 6326SOL     OW18976   5.274   4.004   3.869
 6326SOL    HW118977   5.230   3.914   3.874
 6326SOL    HW218978   5.278   4.044   3.960
 6327SOL     OW18979   5.027   4.569   3.778
 6327SOL    HW118980   5.047   4.471   3.780
 6327SOL    HW218981   5.050   4.606   3.688
 6328SOL     OW18982   4.786   5.077   4.620
 6328SOL    HW118983   4.776   5.002   4.555
 6328SOL    HW218984   4.834   5.153   4.577
 6329SOL     OW18985   4.024   4.496   4.674
 6329SOL    HW118986   4.114   4.533   4.654
 6329SOL    HW218987   4.032   4.400   4.699
 6330SOL     OW18988   4.066   4.235   4.724
 6330SOL    HW118989   4.021   4.147   4.709
 6330SOL    HW218990   4.143   4.245   4.661
 6331SOL     OW18991   4.896   4.076   5.420
 6331SOL    HW118992   4.826   4.128   5.469
 6331SOL    HW218993   4.978   4.132   5.408
 6332SOL     OW18994   4.861   3.928   5.204
 6332SOL    HW118995   4.865   3.995   5.278
 6332SOL    HW218996   4.909   3.964   5.124
 6333SOL     OW18997   3.700   5.058   3.938
 6333SOL    HW118998   3.603   5.067   3.916
 6333SOL    HW218999   3.720   4.964   3.966
 6334SOL     OW19000   3.807   5.530   4.654
 6334SOL    HW119001   3.762   5.445   4.623
 6334SOL    HW219002   3.902   5.531   4.622
 6335SOL     OW19003   4.231   5.305   4.625
 6335SOL    HW119004   4.306   5.370   4.636
 6335SOL    HW219005   4.255   5.238   4.555
 6336SOL     OW19006   4.707   4.529   4.933
 6336SOL    HW119007   4.763   4.522   5.016
 6336SOL    HW219008   4.632   4.463   4.939
 6337SOL     OW19009   3.766   4.285   4.847
 6337SOL    HW119010   3.851   4.297   4.796
 6337SOL    HW219011   3.788   4.263   4.942
 6338SOL     OW19012   3.955   4.254   5.448
 6338SOL    HW119013   4.021   4.230   5.376
 6338SOL    HW219014   3.899   4.331   5.418
 6339SOL     OW19015   5.096   4.639   5.376
 6339SOL    HW119016   5.122   4.736   5.378
 6339SOL    HW219017   5.096   4.607   5.281
 6340SOL     OW19018   4.559   4.274   4.044
 6340SOL    HW119019   4.555   4.194   3.984
 6340SOL    HW219020   4.473   4.325   4.038
 6341SOL     OW19021   5.362   4.297   4.884
 6341SOL    HW119022   5.350   4.254   4.973
 6341SOL    HW219023   5.454   4.278   4.849
 6342SOL     OW19024   3.974   5.262   5.459
 6342SOL    HW119025   3.968   5.334   5.528
 6342SOL    HW219026   3.957   5.173   5.503
 6343SOL     OW19027   4.432   4.180   4.981
 6343SOL    HW119028   4.367   4.106   4.961
 6343SOL    HW219029   4.429   4.247   4.906
 6344SOL     OW19030   4.630   5.364   5.190
 6344SOL    HW119031   4.630   5.318   5.101
 6344SOL    HW219032   4.626   5.463   5.176
 6345SOL     OW19033   4.227   4.225   3.871
 6345SOL    HW119034   4.284   4.287   3.924
 6345SOL    HW219035   4.133   4.258   3.870
 6346SOL     OW19036   3.912   4.854   5.194
 6346SOL    HW119037   3.874   4.815   5.278
 6346SOL    HW219038   3.912   4.785   5.122
 6347SOL     OW19039   5.031   4.761   4.949
 6347SOL    HW119040   5.051   4.688   4.884
 6347SOL    HW219041   4.934   4.787   4.942
 6348SOL     OW19042   5.030   4.609   4.034
 6348SOL    HW119043   4.951   4.564   4.074
 6348SOL    HW219044   5.033   4.592   3.936
 6349SOL     OW19045   5.542   5.438   4.887
 6349SOL    HW119046   5.604   5.476   4.818
 6349SOL    HW219047   5.492   5.362   4.848
 6350SOL     OW19048   4.945   5.425   4.876
 6350SOL    HW119049   5.009   5.490   4.836
 6350SOL    HW219050   4.978   5.332   4.861
 6351SOL     OW19051   3.832   4.985   4.757
 6351SOL    HW119052   3.814   4.983   4.855
 6351SOL    HW219053   3.761   4.934   4.708
 6352SOL     OW19054   4.432   5.371   5.447
 6352SOL    HW119055   4.337   5.401   5.440
 6352SOL    HW219056   4.485   5.413   5.374
 6353SOL     OW19057   5.467   3.890   4.232
 6353SOL    HW119058   5.554   3.869   4.187
 6353SOL    HW219059   5.428   3.807   4.272
 6354SOL     OW19060   5.093   5.305   4.208
 6354SOL    HW119061   5.169   5.325   4.146
 6354SOL    HW219062   5.052   5.391   4.238
 6355SOL     OW19063   3.867   5.518   5.571
 6355SOL    HW119064   3.787   5.466   5.601
 6355SOL    HW219065   3.917   5.551   5.650
 6356SOL     OW19066   4.996   4.648   4.376
 6356SOL    HW119067   5.065   4.577   4.393
 6356SOL    HW219068   5.041   4.736   4.366
 6357SOL     OW19069   4.498   4.965   5.127
 6357SOL    HW119070   4.477   5.026   5.203
 6357SOL    HW219071   4.435   4.983   5.051
 6358SOL     OW19072   4.372   5.341   3.886
 6358SOL    HW119073   4.399   5.341   3.790
 6358SOL    HW219074   4.319   5.258   3.906
 6359SOL     OW19075   5.349   5.482   5.103
 6359SOL    HW119076   5.415   5.474   5.028
 6359SOL    HW219077   5.333   5.578   5.123
 6360SOL     OW19078   5.583   3.902   4.668
 6360SOL    HW119079   5.606   3.805   4.664
 6360SOL    HW219080   5.486   3.915   4.647
 6361SOL     OW19081   3.977   4.012   4.419
 6361SOL    HW119082   3.887   4.048   4.394
 6361SOL    HW219083   3.986   4.011   4.518
 6362SOL     OW19084   4.957   5.330   3.751
 6362SOL    HW119085   4.923   5.242   3.786
 6362SOL    HW219086   4.903   5.355   3.670
 6363SOL     OW19087   4.556   4.712   5.099
 6363SOL    HW119088   4.609   4.699   5.016
 6363SOL    HW219089   4.530   4.808   5.108
 6364SOL     OW19090   4.635   4.646   4.000
 6364SOL    HW119091   4.709   4.691   3.950
 6364SOL    HW219092   4.652   4.547   4.002
 6365SOL     OW19093   5.234   5.363   3.790
 6365SOL    HW119094   5.136   5.346   3.793
 6365SOL    HW219095   5.265   5.366   3.695
 6366SOL     OW19096   4.099   5.034   5.256
 6366SOL    HW119097   4.069   5.118   5.211
 6366SOL    HW219098   4.038   4.959   5.231
 6367SOL     OW19099   5.346   5.014   5.032
 6367SOL    HW119100   5.401   4.995   5.114
 6367SOL    HW219101   5.281   5.088   5.052
 6368SOL     OW19102   4.740   4.875   4.440
 6368SOL    HW119103   4.692   4.795   4.475
 6368SOL    HW219104   4.800   4.848   4.365
 6369SOL     OW19105   4.717   3.969   4.718
 6369SOL    HW119106   4.694   3.940   4.625
 6369SOL    HW219107   4.716   3.889   4.779
 6370SOL     OW19108   4.336   5.198   4.172
 6370SOL    HW119109   4.338   5.124   4.105
 6370SOL    HW219110   4.258   5.258   4.154
 6371SOL     OW19111   5.437   4.125   5.091
 6371SOL    HW119112   5.512   4.187   5.111
 6371SOL    HW219113   5.469   4.053   5.030
 6372SOL     OW19114   3.970   5.087   4.016
 6372SOL    HW119115   3.878   5.096   3.977
 6372SOL    HW219116   3.971   5.124   4.109
 6373SOL     OW19117   3.838   4.778   5.459
 6373SOL    HW119118   3.760   4.756   5.517
 6373SOL    HW219119   3.920   4.734   5.494
 6374SOL     OW19120   4.394   3.918   5.213
 6374SOL    HW119121   4.482   3.881   5.183
 6374SOL    HW219122   4.409   3.982   5.288
 6375SOL     OW19123   3.778   4.063   3.757
 6375SOL    HW119124   3.690   4.034   3.720
 6375SOL    HW219125   3.808   4.146   3.709
 6376SOL     OW19126   5.168   4.574   5.124
 6376SOL    HW119127   5.109   4.630   5.065
 6376SOL    HW219128   5.263   4.582   5.094
 6377SOL     OW19129   3.780   3.877   4.034
 6377SOL    HW119130   3.745   3.956   3.984
 6377SOL    HW219131   3.875   3.860   4.007
 6378SOL     OW19132   4.907   5.074   3.849
 6378SOL    HW119133   4.852   4.991   3.838
 6378SOL    HW219134   4.934   5.083   3.945
 6379SOL     OW19135   4.344   4.527   5.169
 6379SOL    HW119136   4.395   4.611   5.151
 6379SOL    HW219137   4.408   4.452   5.185
 6380SOL     OW19138   5.209   5.509   4.707
 6380SOL    HW119139   5.223   5.596   4.660
 6380SOL    HW219140   5.270   5.503   4.786
 6381SOL     OW19141   4.441   4.287   5.430
 6381SOL    HW119142   4.465   4.356   5.498
 6381SOL    HW219143   4.462   4.196   5.467
 6382SOL     OW19144   5.167   4.916   5.361
 6382SOL    HW119145   5.161   4.919   5.461
 6382SOL    HW219146   5.252   4.961   5.331
 6383SOL     OW19147   4.078   5.457   5.257
 6383SOL    HW119148   3.991   5.506   5.258
 6383SOL    HW219149   4.065   5.368   5.301
 6384SOL     OW19150   5.422   4.578   4.967
 6384SOL    HW119151   5.404   4.500   4.907
 6384SOL    HW219152   5.406   4.663   4.917
 6385SOL     OW19153   4.909   4.042   4.197
 6385SOL    HW119154   4.974   3.970   4.170
 6385SOL    HW219155   4.950   4.099   4.268
 6386SOL     OW19156   4.252   4.457   4.421
 6386SOL    HW119157   4.309   4.539   4.418
 6386SOL    HW219158   4.203   4.447   4.334
 6387SOL     OW19159   5.474   4.115   5.370
 6387SOL    HW119160   5.456   4.127   5.272
 6387SOL    HW219161   5.404   4.056   5.410
 6388SOL     OW19162   5.458   4.689   5.200
 6388SOL    HW119163   5.487   4.782   5.181
 6388SOL    HW219164   5.455   4.637   5.115
 6389SOL     OW19165   4.571   5.131   3.735
 6389SOL    HW119166   4.574   5.116   3.834
 6389SOL    HW219167   4.633   5.205   3.711
 6390SOL     OW19168   4.399   5.516   4.644
 6390SOL    HW119169   4.363   5.608   4.657
 6390SOL    HW219170   4.499   5.519   4.643
 6391SOL     OW19171   4.593   4.704   4.596
 6391SOL    HW119172   4.665   4.639   4.619
 6391SOL    HW219173   4.558   4.747   4.679
 6392SOL     OW19174   4.811   4.750   3.804
 6392SOL    HW119175   4.773   4.776   3.715
 6392SOL    HW219176   4.877   4.677   3.792
 6393SOL     OW19177   5.556   5.287   4.588
 6393SOL    HW119178   5.475   5.280   4.529
 6393SOL    HW219179   5.547   5.222   4.664
 6394SOL     OW19180   3.919   5.026   5.589
 6394SOL    HW119181   3.878   4.942   5.553
 6394SOL    HW219182   3.875   5.049   5.676
 6395SOL     OW19183   3.843   4.944   4.343
 6395SOL    HW119184   3.846   4.919   4.440
 6395SOL    HW219185   3.924   4.908   4.297
 6396SOL     OW19186   4.457   5.117   5.340
 6396SOL    HW119187   4.363   5.097   5.368
 6396SOL    HW219188   4.480   5.211   5.364
 6397SOL     OW19189   5.515   3.911   4.944
 6397SOL    HW119190   5.543   3.819   4.971
 6397SOL    HW219191   5.541   3.927   4.849
 6398SOL     OW19192   4.123   4.152   4.239
 6398SOL    HW119193   4.175   4.080   4.194
 6398SOL    HW219194   4.063   4.111   4.308
 6399SOL     OW19195   5.422   5.192   4.827
 6399SOL    HW119196   5.341   5.186   4.769
 6399SOL    HW219197   5.409   5.135   4.909
 6400SOL     OW19198   4.030   4.272   4.993
 6400SOL    HW119199   4.088   4.221   5.057
 6400SOL    HW219200   4.054   4.247   4.899
 6401SOL     OW19201   4.537   5.278   4.432
 6401SOL    HW119202   4.548   5.297   4.334
 6401SOL    HW219203   4.451   5.230   4.447
 6402SOL     OW19204   5.138   3.955   4.846
 6402SOL    HW119205   5.212   3.906   4.893
 6402SOL    HW219206   5.090   4.013   4.912
 6403SOL     OW19207   4.719   3.751   4.888
 6403SOL    HW119208   4.660   3.689   4.836
 6403SOL    HW219209   4.805   3.706   4.910
 6404SOL     OW19210   4.569   5.009   4.065
 6404SOL    HW119211   4.509   4.933   4.091
 6404SOL    HW219212   4.608   5.051   4.147
 6405SOL     OW19213   4.375   5.277   5.010
 6405SOL    HW119214   4.364   5.359   5.065
 6405SOL    HW219215   4.463   5.279   4.964
 6406SOL     OW19216   5.112   3.782   3.880
 6406SOL    HW119217   5.148   3.745   3.794
 6406SOL    HW219218   5.040   3.723   3.915
 6407SOL     OW19219   5.039   4.179   4.392
 6407SOL    HW119220   4.990   4.267   4.389
 6407SOL    HW219221   5.044   4.147   4.487
 6408SOL     OW19222   5.316   3.922   4.622
 6408SOL    HW119223   5.258   3.947   4.700
 6408SOL    HW219224   5.327   4.002   4.563
 6409SOL     OW19225   3.758   4.813   4.011
 6409SOL    HW119226   3.858   4.809   4.011
 6409SOL    HW219227   3.721   4.720   4.012
 6410SOL     OW19228   4.610   5.356   4.005
 6410SOL    HW119229   4.523   5.336   3.960
 6410SOL    HW219230   4.599   5.434   4.066
 6411SOL     OW19231   3.966   4.360   5.717
 6411SOL    HW119232   3.883   4.378   5.771
 6411SOL    HW219233   3.942   4.349   5.621
 6412SOL     OW19234   5.445   4.365   5.815
 6412SOL    HW119235   5.439   4.374   5.715
 6412SOL    HW219236   5.436   4.268   5.839
 6413SOL     OW19237   3.963   5.422   0.037
 6413SOL    HW119238   3.976   5.485   0.114
 6413SOL    HW219239   3.976   5.471   5.951
 6414SOL     OW19240   4.327   4.694   5.753
 6414SOL    HW119241   4.357   4.756   5.680
 6414SOL    HW219242   4.357   4.728   5.841
 6415SOL     OW19243   5.541   5.409   5.942
 6415SOL    HW119244   5.607   5.353   5.993
 6415SOL    HW219245   5.571   5.504   5.942
 6416SOL     OW19246   3.700   5.346   5.704
 6416SOL    HW119247   3.733   5.256   5.730
 6416SOL    HW219248   3.699   5.406   5.785
 6417SOL     OW19249   5.408   4.651   0.208
 6417SOL    HW119250   5.487   4.635   0.268
 6417SOL    HW219251   5.427   4.612   0.118
 6418SOL     OW19252   5.398   4.865   5.985
 6418SOL    HW119253   5.496   4.845   5.994
 6418SOL    HW219254   5.351   4.838   0.070
 6419SOL     OW19255   5.253   4.725   5.787
 6419SOL    HW119256   5.213   4.638   5.818
 6419SOL    HW219257   5.293   4.773   5.865
 6420SOL     OW19258   4.302   4.439   5.874
 6420SOL    HW119259   4.305   4.520   5.817
 6420SOL    HW219260   4.275   4.464   5.967
 6421SOL     OW19261   4.580   4.084   5.756
 6421SOL    HW119262   4.643   4.113   5.683
 6421SOL    HW219263   4.555   3.988   5.741
 6422SOL     OW19264   4.050   4.665   5.844
 6422SOL    HW119265   4.138   4.681   5.800
 6422SOL    HW219266   3.997   4.599   5.790
 6423SOL     OW19267   4.851   5.527   5.795
 6423SOL    HW119268   4.770   5.480   5.832
 6423SOL    HW219269   4.886   5.476   5.717
 6424SOL     OW19270   5.355   5.084   5.633
 6424SOL    HW119271   5.331   5.176   5.662
 6424SOL    HW219272   5.273   5.025   5.637
 6425SOL     OW19273   4.226   5.514   5.911
 6425SOL    HW119274   4.222   5.520   0.011
 6425SOL    HW219275   4.285   5.438   5.884
 6426SOL     OW19276   4.325   3.839   5.675
 6426SOL    HW119277   4.410   3.787   5.683
 6426SOL    HW219278   4.271   3.805   5.598
 6427SOL     OW19279   5.133   4.909   5.621
 6427SOL    HW119280   5.163   4.828   5.672
 6427SOL    HW219281   5.067   4.960   5.676
 6428SOL     OW19282   4.020   3.759   5.791
 6428SOL    HW119283   4.067   3.825   5.733
 6428SOL    HW219284   4.086   3.705   5.842
 6429SOL     OW19285   4.739   4.239   5.567
 6429SOL    HW119286   4.689   4.324   5.555
 6429SOL    HW219287   4.807   4.251   5.640
 6430SOL     OW19288   5.545   4.555   5.972
 6430SOL    HW119289   5.611   4.509   0.032
 6430SOL    HW219290   5.512   4.490   5.903
 6431SOL     OW19291   4.206   5.148   5.755
 6431SOL    HW119292   4.129   5.114   5.809
 6431SOL    HW219293   4.203   5.109   5.663
 6432SOL     OW19294   5.403   4.992   0.332
 6432SOL    HW119295   5.500   4.971   0.315
 6432SOL    HW219296   5.361   5.025   0.248
 6433SOL     OW19297   5.098   4.301   5.663
 6433SOL    HW119298   5.029   4.264   5.724
 6433SOL    HW219299   5.189   4.285   5.701
 6434SOL     OW19300   4.274   3.981   5.902
 6434SOL    HW119301   4.278   3.921   5.822
 6434SOL    HW219302   4.246   4.073   5.873
 6435SOL     OW19303   4.107   4.848   0.037
 6435SOL    HW119304   4.081   4.937   6.000
 6435SOL    HW219305   4.068   4.776   5.980
 6436SOL     OW19306   4.906   4.224   5.835
 6436SOL    HW119307   4.946   4.134   5.851
 6436SOL    HW219308   4.840   4.245   5.907
 6437SOL     OW19309   4.041   3.796   0.202
 6437SOL    HW119310   4.084   3.886   0.198
 6437SOL    HW219311   4.106   3.730   0.242
 6438SOL     OW19312   5.264   4.016   5.718
 6438SOL    HW119313   5.213   3.930   5.722
 6438SOL    HW219314   5.291   4.043   5.810
 6439SOL     OW19315   5.028   4.560   5.624
 6439SOL    HW119316   5.045   4.462   5.625
 6439SOL    HW219317   5.054   4.598   5.535
 6440SOL     OW19318   3.737   5.041   5.785
 6440SOL    HW119319   3.658   5.050   5.725
 6440SOL    HW219320   3.733   4.954   5.834
 6441SOL     OW19321   4.544   4.327   5.877
 6441SOL    HW119322   4.550   4.237   5.834
 6441SOL    HW219323   4.449   4.356   5.881
 6442SOL     OW19324   4.189   4.214   5.756
 6442SOL    HW119325   4.249   4.284   5.795
 6442SOL    HW219326   4.103   4.256   5.726
 6443SOL     OW19327   5.521   3.829   0.100
 6443SOL    HW119328   5.576   3.849   0.019
 6443SOL    HW219329   5.462   3.751   0.081
 6444SOL     OW19330   4.396   5.332   5.750
 6444SOL    HW119331   4.384   5.358   5.654
 6444SOL    HW219332   4.331   5.259   5.773
 6445SOL     OW19333   4.943   5.352   5.602
 6445SOL    HW119334   4.921   5.264   5.644
 6445SOL    HW219335   4.887   5.364   5.520
 6446SOL     OW19336   4.674   4.600   5.884
 6446SOL    HW119337   4.723   4.639   5.806
 6446SOL    HW219338   4.642   4.508   5.860
 6447SOL     OW19339   5.232   5.376   5.642
 6447SOL    HW119340   5.133   5.364   5.635
 6447SOL    HW219341   5.271   5.385   5.551
 6448SOL     OW19342   4.806   4.823   0.334
 6448SOL    HW119343   4.706   4.829   0.339
 6448SOL    HW219344   4.833   4.790   0.244
 6449SOL     OW19345   3.981   5.090   5.902
 6449SOL    HW119346   3.892   5.067   5.862
 6449SOL    HW219347   3.972   5.174   5.956
 6450SOL     OW19348   3.785   4.086   5.648
 6450SOL    HW119349   3.700   4.059   5.603
 6450SOL    HW219350   3.836   4.148   5.588
 6451SOL     OW19351   3.796   3.881   5.890
 6451SOL    HW119352   3.777   3.914   5.798
 6451SOL    HW219353   3.887   3.838   5.891
 6452SOL     OW19354   4.943   5.086   5.746
 6452SOL    HW119355   4.857   5.056   5.706
 6452SOL    HW219356   4.954   5.047   5.837
 6453SOL     OW19357   4.969   3.996   0.010
 6453SOL    HW119358   5.047   3.960   0.062
 6453SOL    HW219359   4.929   4.073   0.059
 6454SOL     OW19360   4.574   5.125   5.612
 6454SOL    HW119361   4.531   5.189   5.676
 6454SOL    HW219362   4.629   5.176   5.545
 6455SOL     OW19363   4.807   4.705   5.680
 6455SOL    HW119364   4.766   4.741   5.596
 6455SOL    HW219365   4.893   4.659   5.659
 6456SOL     OW19366   5.112   3.799   5.729
 6456SOL    HW119367   5.143   3.727   5.667
 6456SOL    HW219368   5.027   3.770   5.773
 6457SOL     OW19369   3.787   4.787   5.899
 6457SOL    HW119370   3.884   4.767   5.889
 6457SOL    HW219371   3.736   4.701   5.908
 6458SOL     OW19372   4.635   5.385   5.886
 6458SOL    HW119373   4.550   5.357   5.841
 6458SOL    HW219374   4.614   5.455   5.955
 6459SOL     OW19375   3.968   5.841   0.954
 6459SOL    HW119376   3.997   5.809   1.044
 6459SOL    HW219377   3.869   5.837   0.948
 6460SOL     OW19378   3.738   5.947   0.685
 6460SOL    HW119379   3.644   5.966   0.715
 6460SOL    HW219380   3.736   5.910   0.592
 6461SOL     OW19381   4.181   5.995   1.479
 6461SOL    HW119382   4.243   5.930   1.435
 6461SOL    HW219383   4.091   5.952   1.490
 6462SOL     OW19384   5.333   0.028   0.713
 6462SOL    HW119385   5.234   0.038   0.700
 6462SOL    HW219386   5.367   0.105   0.767
 6463SOL     OW19387   5.290   5.727   1.455
 6463SOL    HW119388   5.325   5.802   1.398
 6463SOL    HW219389   5.308   5.748   1.551
 6464SOL     OW19390   4.549   5.584   0.492
 6464SOL    HW119391   4.593   5.671   0.472
 6464SOL    HW219392   4.452   5.599   0.511
 6465SOL     OW19393   4.020   5.811   1.844
 6465SOL    HW119394   4.079   5.887   1.817
 6465SOL    HW219395   3.929   5.845   1.865
 6466SOL     OW19396   5.005   5.938   0.934
 6466SOL    HW119397   4.912   5.909   0.912
 6466SOL    HW219398   5.044   5.875   1.001
 6467SOL     OW19399   4.246   5.740   0.915
 6467SOL    HW119400   4.266   5.787   1.001
 6467SOL    HW219401   4.218   5.808   0.847
 6468SOL     OW19402   3.921   5.904   1.504
 6468SOL    HW119403   3.830   5.895   1.464
 6468SOL    HW219404   3.930   5.841   1.581
 6469SOL     OW19405   5.121   5.728   0.409
 6469SOL    HW119406   5.125   5.704   0.312
 6469SOL    HW219407   5.214   5.738   0.445
 6470SOL     OW19408   5.273   5.790   1.740
 6470SOL    HW119409   5.284   5.811   1.837
 6470SOL    HW219410   5.214   5.710   1.730
 6471SOL     OW19411   4.349   5.705   0.126
 6471SOL    HW119412   4.445   5.678   0.114
 6471SOL    HW219413   4.322   5.764   0.050
 6472SOL     OW19414   4.476   5.851   1.725
 6472SOL    HW119415   4.550   5.789   1.750
 6472SOL    HW219416   4.410   5.857   1.800
 6473SOL     OW19417   5.144   0.236   1.436
 6473SOL    HW119418   5.088   0.197   1.509
 6473SOL    HW219419   5.086   0.292   1.376
 6474SOL     OW19420   4.292   5.638   0.491
 6474SOL    HW119421   4.215   5.636   0.555
 6474SOL    HW219422   4.277   5.712   0.425
 6475SOL     OW19423   4.662   5.828   0.451
 6475SOL    HW119424   4.615   5.899   0.504
 6475SOL    HW219425   4.756   5.855   0.434
 6476SOL     OW19426   4.298   5.810   1.173
 6476SOL    HW119427   4.360   5.751   1.224
 6476SOL    HW219428   4.213   5.820   1.224
 6477SOL     OW19429   4.678   5.650   0.737
 6477SOL    HW119430   4.636   5.625   0.650
 6477SOL    HW219431   4.716   5.569   0.781
 6478SOL     OW19432   4.248   5.863   0.327
 6478SOL    HW119433   4.297   5.828   0.247
 6478SOL    HW219434   4.282   5.955   0.349
 6479SOL     OW19435   4.663   5.639   1.405
 6479SOL    HW119436   4.689   5.624   1.309
 6479SOL    HW219437   4.726   5.704   1.447
 6480SOL     OW19438   4.705   5.688   1.748
 6480SOL    HW119439   4.761   5.710   1.669
 6480SOL    HW219440   4.715   5.592   1.771
 6481SOL     OW19441   4.176   5.609   1.743
 6481SOL    HW119442   4.134   5.559   1.667
 6481SOL    HW219443   4.118   5.688   1.766
 6482SOL     OW19444   4.018   5.764   1.220
 6482SOL    HW119445   3.959   5.806   1.289
 6482SOL    HW219446   4.002   5.666   1.217
 6483SOL     OW19447   4.513   0.215   1.030
 6483SOL    HW119448   4.472   0.187   0.943
 6483SOL    HW219449   4.441   0.252   1.090
 6484SOL     OW19450   4.066   5.642   0.647
 6484SOL    HW119451   4.027   5.730   0.675
 6484SOL    HW219452   4.067   5.580   0.725
 6485SOL     OW19453   5.202   5.857   0.153
 6485SOL    HW119454   5.158   5.768   0.140
 6485SOL    HW219455   5.298   5.844   0.177
 6486SOL     OW19456   4.120   0.041   1.018
 6486SOL    HW119457   4.061   5.965   0.990
 6486SOL    HW219458   4.150   0.091   0.937
 6487SOL     OW19459   4.841   5.841   1.495
 6487SOL    HW119460   4.856   5.909   1.566
 6487SOL    HW219461   4.852   5.884   1.405
 6488SOL     OW19462   4.539   0.168   0.355
 6488SOL    HW119463   4.520   0.087   0.299
 6488SOL    HW219464   4.456   0.222   0.365
 6489SOL     OW19465   4.643   5.641   0.123
 6489SOL    HW119466   4.675   5.704   0.053
 6489SOL    HW219467   4.663   5.679   0.214
 6490SOL     OW19468   5.479   5.757   0.494
 6490SOL    HW119469   5.553   5.728   0.433
 6490SOL    HW219470   5.437   5.677   0.536
 6491SOL     OW19471   5.576   5.756   0.954
 6491SOL    HW119472   5.602   5.664   0.925
 6491SOL    HW219473   5.483   5.775   0.925
 6492SOL     OW19474   4.739   5.836   0.917
 6492SOL    HW119475   4.707   5.777   0.842
 6492SOL    HW219476   4.750   5.781   1.000
 6493SOL     OW19477   4.423   5.758   1.452
 6493SOL    HW119478   4.513   5.728   1.420
 6493SOL    HW219479   4.432   5.802   1.541
 6494SOL     OW19480   3.761   5.926   0.083
 6494SOL    HW119481   3.792   5.857   0.017
 6494SOL    HW219482   3.806   0.013   0.064
 6495SOL     OW19483   3.819   5.726   0.326
 6495SOL    HW119484   3.766   5.785   0.264
 6495SOL    HW219485   3.903   5.697   0.281
 6496SOL     OW19486   4.921   5.910   0.428
 6496SOL    HW119487   4.981   5.831   0.428
 6496SOL    HW219488   4.966   5.986   0.477
 6497SOL     OW19489   5.511   5.898   1.595
 6497SOL    HW119490   5.482   5.967   1.529
 6497SOL    HW219491   5.448   5.897   1.673
 6498SOL     OW19492   5.493   5.766   1.231
 6498SOL    HW119493   5.531   5.689   1.282
 6498SOL    HW219494   5.537   5.771   1.141
 6499SOL     OW19495   5.130   5.795   1.119
 6499SOL    HW119496   5.227   5.768   1.117
 6499SOL    HW219497   5.111   5.842   1.205
 6500SOL     OW19498   4.754   5.608   1.150
 6500SOL    HW119499   4.691   5.549   1.099
 6500SOL    HW219500   4.835   5.555   1.176
 6501SOL     OW19501   5.080   5.625   0.158
 6501SOL    HW119502   5.123   5.549   0.109
 6501SOL    HW219503   5.001   5.591   0.209
 6502SOL     OW19504   5.064   0.087   0.721
 6502SOL    HW119505   4.978   0.132   0.696
 6502SOL    HW219506   5.050   0.030   0.802
 6503SOL     OW19507   5.297   5.818   0.886
 6503SOL    HW119508   5.203   5.838   0.912
 6503SOL    HW219509   5.329   5.886   0.820
 6504SOL     OW19510   3.958   5.841   2.806
 6504SOL    HW119511   3.996   5.813   2.894
 6504SOL    HW219512   3.858   5.830   2.808
 6505SOL     OW19513   3.730   5.964   2.533
 6505SOL    HW119514   3.637   5.978   2.568
 6505SOL    HW219515   3.725   5.919   2.444
 6506SOL     OW19516   5.458   0.200   2.065
 6506SOL    HW119517   5.477   0.125   2.002
 6506SOL    HW219518   5.434   0.163   2.154
 6507SOL     OW19519   4.175   5.995   3.343
 6507SOL    HW119520   4.240   5.934   3.297
 6507SOL    HW219521   4.087   5.949   3.354
 6508SOL     OW19522   5.340   0.034   2.580
 6508SOL    HW119523   5.244   0.029   2.553
 6508SOL    HW219524   5.355   0.117   2.635
 6509SOL     OW19525   5.272   5.731   3.318
 6509SOL    HW119526   5.316   5.802   3.263
 6509SOL    HW219527   5.294   5.744   3.414
 6510SOL     OW19528   4.546   5.554   2.311
 6510SOL    HW119529   4.588   5.645   2.309
 6510SOL    HW219530   4.449   5.563   2.337
 6511SOL     OW19531   4.023   5.814   3.703
 6511SOL    HW119532   4.081   5.888   3.671
 6511SOL    HW219533   3.932   5.850   3.725
 6512SOL     OW19534   5.009   5.935   2.790
 6512SOL    HW119535   4.918   5.898   2.772
 6512SOL    HW219536   5.051   5.885   2.866
 6513SOL     OW19537   4.585   5.927   2.028
 6513SOL    HW119538   4.673   5.954   1.990
 6513SOL    HW219539   4.599   5.862   2.103
 6514SOL     OW19540   4.233   5.750   2.774
 6514SOL    HW119541   4.258   5.802   2.856
 6514SOL    HW219542   4.226   5.812   2.696
 6515SOL     OW19543   3.919   5.898   3.367
 6515SOL    HW119544   3.830   5.887   3.322
 6515SOL    HW219545   3.925   5.835   3.444
 6516SOL     OW19546   5.089   5.729   2.284
 6516SOL    HW119547   5.082   5.702   2.188
 6516SOL    HW219548   5.186   5.729   2.312
 6517SOL     OW19549   5.275   5.792   3.605
 6517SOL    HW119550   5.285   5.813   3.703
 6517SOL    HW219551   5.206   5.721   3.593
 6518SOL     OW19552   4.334   5.713   1.933
 6518SOL    HW119553   4.402   5.647   1.965
 6518SOL    HW219554   4.281   5.672   1.859
 6519SOL     OW19555   4.468   5.849   3.582
 6519SOL    HW119556   4.541   5.786   3.609
 6519SOL    HW219557   4.408   5.866   3.660
 6520SOL     OW19558   5.161   0.228   3.294
 6520SOL    HW119559   5.112   0.196   3.376
 6520SOL    HW219560   5.100   0.284   3.239
 6521SOL     OW19561   4.294   5.643   2.350
 6521SOL    HW119562   4.214   5.647   2.409
 6521SOL    HW219563   4.302   5.728   2.297
 6522SOL     OW19564   4.007   5.627   2.050
 6522SOL    HW119565   4.032   5.694   1.981
 6522SOL    HW219566   4.085   5.568   2.070
 6523SOL     OW19567   4.635   5.811   2.306
 6523SOL    HW119568   4.571   5.876   2.348
 6523SOL    HW219569   4.728   5.846   2.314
 6524SOL     OW19570   4.294   5.808   3.026
 6524SOL    HW119571   4.357   5.755   3.083
 6524SOL    HW219572   4.204   5.811   3.071
 6525SOL     OW19573   4.689   5.659   2.598
 6525SOL    HW119574   4.657   5.655   2.504
 6525SOL    HW219575   4.705   5.566   2.632
 6526SOL     OW19576   4.312   5.849   2.172
 6526SOL    HW119577   4.307   5.805   2.083
 6526SOL    HW219578   4.296   5.948   2.161
 6527SOL     OW19579   4.670   5.637   3.278
 6527SOL    HW119580   4.688   5.623   3.181
 6527SOL    HW219581   4.732   5.707   3.314
 6528SOL     OW19582   4.707   5.694   3.609
 6528SOL    HW119583   4.760   5.715   3.527
 6528SOL    HW219584   4.717   5.598   3.632
 6529SOL     OW19585   4.182   5.612   3.613
 6529SOL    HW119586   4.147   5.556   3.538
 6529SOL    HW219587   4.120   5.688   3.630
 6530SOL     OW19588   4.024   5.764   3.092
 6530SOL    HW119589   3.965   5.810   3.158
 6530SOL    HW219590   4.001   5.666   3.090
 6531SOL     OW19591   4.488   0.212   2.899
 6531SOL    HW119592   4.446   0.200   2.809
 6531SOL    HW219593   4.417   0.234   2.965
 6532SOL     OW19594   4.077   5.660   2.504
 6532SOL    HW119595   4.028   5.742   2.532
 6532SOL    HW219596   4.074   5.592   2.577
 6533SOL     OW19597   5.288   5.845   2.014
 6533SOL    HW119598   5.228   5.766   2.014
 6533SOL    HW219599   5.283   5.891   2.103
 6534SOL     OW19600   4.103   0.047   2.873
 6534SOL    HW119601   4.046   5.972   2.839
 6534SOL    HW219602   4.138   0.100   2.796
 6535SOL     OW19603   4.851   5.851   3.363
 6535SOL    HW119604   4.861   5.923   3.431
 6535SOL    HW219605   4.866   5.888   3.271
 6536SOL     OW19606   4.559   0.145   2.157
 6536SOL    HW119607   4.563   0.053   2.120
 6536SOL    HW219608   4.464   0.173   2.168
 6537SOL     OW19609   5.483   5.758   2.364
 6537SOL    HW119610   5.554   5.740   2.296
 6537SOL    HW219611   5.448   5.671   2.399
 6538SOL     OW19612   5.578   5.749   2.817
 6538SOL    HW119613   5.610   5.658   2.790
 6538SOL    HW219614   5.486   5.763   2.782
 6539SOL     OW19615   4.723   5.840   2.782
 6539SOL    HW119616   4.707   5.779   2.705
 6539SOL    HW219617   4.735   5.786   2.865
 6540SOL     OW19618   4.420   5.775   3.305
 6540SOL    HW119619   4.510   5.759   3.265
 6540SOL    HW219620   4.430   5.807   3.400
 6541SOL     OW19621   3.781   5.907   1.918
 6541SOL    HW119622   3.700   5.904   1.860
 6541SOL    HW219623   3.824   5.997   1.911
 6542SOL     OW19624   3.798   5.748   2.170
 6542SOL    HW119625   3.785   5.810   2.093
 6542SOL    HW219626   3.891   5.710   2.165
 6543SOL     OW19627   4.897   5.905   2.315
 6543SOL    HW119628   4.959   5.827   2.310
 6543SOL    HW219629   4.947   5.987   2.341
 6544SOL     OW19630   5.511   5.886   3.462
 6544SOL    HW119631   5.489   5.964   3.403
 6544SOL    HW219632   5.434   5.868   3.524
 6545SOL     OW19633   5.495   5.759   3.095
 6545SOL    HW119634   5.539   5.685   3.147
 6545SOL    HW219635   5.537   5.767   3.005
 6546SOL     OW19636   5.130   5.796   2.984
 6546SOL    HW119637   5.225   5.770   2.970
 6546SOL    HW219638   5.123   5.850   3.068
 6547SOL     OW19639   4.745   5.606   3.016
 6547SOL    HW119640   4.686   5.547   2.961
 6547SOL    HW219641   4.827   5.556   3.043
 6548SOL     OW19642   5.099   5.644   2.009
 6548SOL    HW119643   5.148   5.569   1.965
 6548SOL    HW219644   5.014   5.611   2.048
 6549SOL     OW19645   5.061   0.076   2.564
 6549SOL    HW119646   4.978   0.130   2.550
 6549SOL    HW219647   5.047   0.014   2.641
 6550SOL     OW19648   5.300   5.827   2.751
 6550SOL    HW119649   5.203   5.843   2.766
 6550SOL    HW219650   5.337   5.898   2.692
 6551SOL     OW19651   3.962   5.840   4.669
 6551SOL    HW119652   3.998   5.815   4.759
 6551SOL    HW219653   3.863   5.832   4.669
 6552SOL     OW19654   3.734   5.960   4.399
 6552SOL    HW119655   3.640   5.973   4.430
 6552SOL    HW219656   3.735   5.908   4.313
 6553SOL     OW19657   5.454   0.198   3.933
 6553SOL    HW119658   5.475   0.125   3.869
 6553SOL    HW219659   5.443   0.160   4.025
 6554SOL     OW19660   4.168   5.992   5.193
 6554SOL    HW119661   4.234   5.926   5.157
 6554SOL    HW219662   4.082   5.945   5.213
 6555SOL     OW19663   5.341   0.036   4.440
 6555SOL    HW119664   5.244   0.035   4.415
 6555SOL    HW219665   5.360   0.116   4.495
 6556SOL     OW19666   5.322   5.738   5.172
 6556SOL    HW119667   5.358   5.825   5.138
 6556SOL    HW219668   5.308   5.745   5.271
 6557SOL     OW19669   4.549   5.554   4.170
 6557SOL    HW119670   4.589   5.646   4.170
 6557SOL    HW219671   4.453   5.559   4.197
 6558SOL     OW19672   4.033   5.804   5.566
 6558SOL    HW119673   4.086   5.879   5.526
 6558SOL    HW219674   3.943   5.837   5.593
 6559SOL     OW19675   5.007   5.936   4.653
 6559SOL    HW119676   4.914   5.902   4.637
 6559SOL    HW219677   5.051   5.880   4.723
 6560SOL     OW19678   4.594   5.938   3.884
 6560SOL    HW119679   4.684   5.964   3.850
 6560SOL    HW219680   4.603   5.864   3.951
 6561SOL     OW19681   4.236   5.741   4.639
 6561SOL    HW119682   4.259   5.795   4.720
 6561SOL    HW219683   4.229   5.802   4.560
 6562SOL     OW19684   3.924   5.891   5.243
 6562SOL    HW119685   3.841   5.893   5.188
 6562SOL    HW219686   3.912   5.828   5.319
 6563SOL     OW19687   5.090   5.731   4.150
 6563SOL    HW119688   5.081   5.704   4.054
 6563SOL    HW219689   5.186   5.727   4.176
 6564SOL     OW19690   5.248   5.798   5.437
 6564SOL    HW119691   5.258   5.827   5.533
 6564SOL    HW219692   5.200   5.711   5.434
 6565SOL     OW19693   4.340   5.710   3.802
 6565SOL    HW119694   4.402   5.640   3.837
 6565SOL    HW219695   4.286   5.673   3.727
 6566SOL     OW19696   4.480   5.854   5.458
 6566SOL    HW119697   4.554   5.791   5.480
 6566SOL    HW219698   4.407   5.846   5.526
 6567SOL     OW19699   5.150   0.240   5.169
 6567SOL    HW119700   5.099   0.200   5.246
 6567SOL    HW219701   5.088   0.293   5.112
 6568SOL     OW19702   4.297   5.646   4.210
 6568SOL    HW119703   4.216   5.650   4.268
 6568SOL    HW219704   4.304   5.731   4.157
 6569SOL     OW19705   4.008   5.626   3.910
 6569SOL    HW119706   4.036   5.693   3.841
 6569SOL    HW219707   4.086   5.568   3.933
 6570SOL     OW19708   4.636   5.808   4.176
 6570SOL    HW119709   4.574   5.877   4.213
 6570SOL    HW219710   4.730   5.841   4.180
 6571SOL     OW19711   4.292   5.805   4.896
 6571SOL    HW119712   4.350   5.740   4.945
 6571SOL    HW219713   4.203   5.809   4.940
 6572SOL     OW19714   4.684   5.659   4.458
 6572SOL    HW119715   4.661   5.653   4.361
 6572SOL    HW219716   4.703   5.568   4.494
 6573SOL     OW19717   4.310   5.852   4.030
 6573SOL    HW119718   4.307   5.807   3.941
 6573SOL    HW219719   4.299   5.951   4.018
 6574SOL     OW19720   4.681   5.639   5.147
 6574SOL    HW119721   4.696   5.627   5.049
 6574SOL    HW219722   4.742   5.709   5.182
 6575SOL     OW19723   4.704   5.697   5.483
 6575SOL    HW119724   4.731   5.740   5.397
 6575SOL    HW219725   4.729   5.600   5.481
 6576SOL     OW19726   4.183   5.604   5.459
 6576SOL    HW119727   4.148   5.551   5.382
 6576SOL    HW219728   4.113   5.669   5.490
 6577SOL     OW19729   4.017   5.755   4.953
 6577SOL    HW119730   3.953   5.797   5.017
 6577SOL    HW219731   3.998   5.658   4.946
 6578SOL     OW19732   4.489   0.216   4.757
 6578SOL    HW119733   4.448   0.200   4.667
 6578SOL    HW219734   4.417   0.246   4.821
 6579SOL     OW19735   4.075   5.655   4.364
 6579SOL    HW119736   4.024   5.737   4.389
 6579SOL    HW219737   4.072   5.589   4.438
 6580SOL     OW19738   5.290   5.845   3.880
 6580SOL    HW119739   5.228   5.766   3.879
 6580SOL    HW219740   5.284   5.891   3.969
 6581SOL     OW19741   4.116   0.037   4.734
 6581SOL    HW119742   4.060   5.959   4.706
 6581SOL    HW219743   4.139   0.092   4.654
 6582SOL     OW19744   4.847   5.847   5.225
 6582SOL    HW119745   4.871   5.920   5.289
 6582SOL    HW219746   4.845   5.884   5.132
 6583SOL     OW19747   4.559   0.150   4.017
 6583SOL    HW119748   4.570   0.061   3.974
 6583SOL    HW219749   4.462   0.166   4.036
 6584SOL     OW19750   5.487   5.758   4.223
 6584SOL    HW119751   5.557   5.740   4.154
 6584SOL    HW219752   5.454   5.671   4.261
 6585SOL     OW19753   5.578   5.754   4.683
 6585SOL    HW119754   5.606   5.660   4.661
 6585SOL    HW219755   5.485   5.769   4.649
 6586SOL     OW19756   4.714   5.834   4.648
 6586SOL    HW119757   4.697   5.775   4.570
 6586SOL    HW219758   4.734   5.778   4.729
 6587SOL     OW19759   4.408   5.765   5.188
 6587SOL    HW119760   4.475   5.800   5.122
 6587SOL    HW219761   4.432   5.795   5.280
 6588SOL     OW19762   3.779   5.912   3.786
 6588SOL    HW119763   3.705   5.904   3.720
 6588SOL    HW219764   3.826   6.000   3.774
 6589SOL     OW19765   3.799   5.750   4.035
 6589SOL    HW119766   3.785   5.811   3.957
 6589SOL    HW219767   3.893   5.714   4.032
 6590SOL     OW19768   4.898   5.908   4.182
 6590SOL    HW119769   4.962   5.832   4.176
 6590SOL    HW219770   4.946   5.991   4.210
 6591SOL     OW19771   5.524   5.905   5.391
 6591SOL    HW119772   5.534   5.971   5.316
 6591SOL    HW219773   5.428   5.897   5.416
 6592SOL     OW19774   5.499   5.773   4.955
 6592SOL    HW119775   5.522   5.688   5.002
 6592SOL    HW219776   5.540   5.774   4.864
 6593SOL     OW19777   5.114   5.800   4.853
 6593SOL    HW119778   5.211   5.776   4.855
 6593SOL    HW219779   5.091   5.854   4.933
 6594SOL     OW19780   4.748   5.604   4.890
 6594SOL    HW119781   4.681   5.545   4.844
 6594SOL    HW219782   4.833   5.553   4.904
 6595SOL     OW19783   5.102   5.651   3.872
 6595SOL    HW119784   5.154   5.580   3.824
 6595SOL    HW219785   5.017   5.612   3.907
 6596SOL     OW19786   5.062   0.072   4.429
 6596SOL    HW119787   4.977   0.122   4.411
 6596SOL    HW219788   5.049   0.012   4.508
 6597SOL     OW19789   5.303   5.830   4.617
 6597SOL    HW119790   5.204   5.840   4.629
 6597SOL    HW219791   5.337   5.903   4.557
 6598SOL     OW19792   5.446   0.229   5.805
 6598SOL    HW119793   5.463   0.189   5.715
 6598SOL    HW219794   5.433   0.156   5.872
 6599SOL     OW19795   4.752   0.216   5.992
 6599SOL    HW119796   4.801   0.301   0.012
 6599SOL    HW219797   4.660   0.238   5.958
 6600SOL     OW19798   4.585   5.978   5.725
 6600SOL    HW119799   4.681   6.000   5.707
 6600SOL    HW219800   4.571   5.879   5.716
 6601SOL     OW19801   4.106   0.243   0.092
 6601SOL    HW119802   4.183   0.258   0.030
 6601SOL    HW219803   4.023   0.285   0.054
 6602SOL     OW19804   4.335   5.702   5.646
 6602SOL    HW119805   4.372   5.620   5.690
 6602SOL    HW219806   4.277   5.677   5.569
 6603SOL     OW19807   4.018   5.616   5.771
 6603SOL    HW119808   4.037   5.685   5.702
 6603SOL    HW219809   4.104   5.583   5.810
 6604SOL     OW19810   4.300   5.870   5.892
 6604SOL    HW119811   4.279   5.803   5.821
 6604SOL    HW219812   4.308   5.961   5.851
 6605SOL     OW19813   4.031   5.638   0.195
 6605SOL    HW119814   4.063   5.733   0.188
 6605SOL    HW219815   4.101   5.582   0.238
 6606SOL     OW19816   5.260   5.878   5.695
 6606SOL    HW119817   5.218   5.791   5.720
 6606SOL    HW219818   5.271   5.934   5.777
 6607SOL     OW19819   4.521   0.176   5.883
 6607SOL    HW119820   4.542   0.090   5.837
 6607SOL    HW219821   4.425   0.199   5.868
 6608SOL     OW19822   5.412   5.688   0.155
 6608SOL    HW119823   5.486   5.743   0.116
 6608SOL    HW219824   5.400   5.605   0.101
 6609SOL     OW19825   3.781   5.910   5.631
 6609SOL    HW119826   3.705   5.880   5.572
 6609SOL    HW219827   3.827   5.988   5.589
 6610SOL     OW19828   3.814   5.773   5.866
 6610SOL    HW119829   3.789   5.819   5.781
 6610SOL    HW219830   3.891   5.711   5.848
 6611SOL     OW19831   5.086   5.670   5.720
 6611SOL    HW119832   5.120   5.593   5.665
 6611SOL    HW219833   5.005   5.641   5.771
 6612SOL     OW19834   5.769   0.649   0.083
 6612SOL    HW119835   5.699   0.618   0.148
 6612SOL    HW219836   5.811   0.570   0.038
 6613SOL     OW19837   5.788   0.319   1.009
 6613SOL    HW119838   5.833   0.291   1.093
 6613SOL    HW219839   5.729   0.245   0.976
 6614SOL     OW19840   5.588   0.372   0.662
 6614SOL    HW119841   5.498   0.398   0.695
 6614SOL    HW219842   5.581   0.291   0.604
 6615SOL     OW19843   0.222   0.986   0.651
 6615SOL    HW119844   0.290   0.913   0.649
 6615SOL    HW219845   0.214   1.021   0.744
 6616SOL     OW19846   5.859   1.510   1.048
 6616SOL    HW119847   5.800   1.429   1.045
 6616SOL    HW219848   5.955   1.482   1.046
 6617SOL     OW19849   5.792   1.698   0.464
 6617SOL    HW119850   5.797   1.779   0.523
 6617SOL    HW219851   5.875   1.692   0.408
 6618SOL     OW19852   5.847   1.441   0.523
 6618SOL    HW119853   5.814   1.535   0.514
 6618SOL    HW219854   5.773   1.383   0.555
 6619SOL     OW19855   5.859   1.101   0.906
 6619SOL    HW119856   5.835   1.007   0.929
 6619SOL    HW219857   5.800   1.164   0.957
 6620SOL     OW19858   5.753   0.629   0.564
 6620SOL    HW119859   5.717   0.542   0.598
 6620SOL    HW219860   5.720   0.704   0.622
 6621SOL     OW19861   5.592   1.519   0.160
 6621SOL    HW119862   5.502   1.478   0.148
 6621SOL    HW219863   5.583   1.606   0.208
 6622SOL     OW19864   5.733   0.752   1.576
 6622SOL    HW119865   5.807   0.802   1.621
 6622SOL    HW219866   5.650   0.808   1.577
 6623SOL     OW19867   5.792   0.958   1.275
 6623SOL    HW119868   5.869   0.918   1.225
 6623SOL    HW219869   5.706   0.926   1.236
 6624SOL     OW19870   5.658   0.831   0.736
 6624SOL    HW119871   5.750   0.827   0.776
 6624SOL    HW219872   5.594   0.866   0.804
 6625SOL     OW19873   5.665   1.821   1.549
 6625SOL    HW119874   5.688   1.799   1.644
 6625SOL    HW219875   5.582   1.878   1.548
 6626SOL     OW19876   5.790   0.285   1.499
 6626SOL    HW119877   5.736   0.369   1.508
 6626SOL    HW219878   5.760   0.219   1.568
 6627SOL     OW19879   0.043   1.741   0.316
 6627SOL    HW119880   0.089   1.725   0.404
 6627SOL    HW219881   0.111   1.751   0.244
 6628SOL     OW19882   5.846   1.830   1.211
 6628SOL    HW119883   5.806   1.767   1.279
 6628SOL    HW219884   5.873   1.778   1.130
 6629SOL     OW19885   5.839   0.059   0.181
 6629SOL    HW119886   5.885   0.145   0.161
 6629SOL    HW219887   5.891   0.008   0.250
 6630SOL     OW19888   5.674   0.537   1.393
 6630SOL    HW119889   5.761   0.503   1.357
 6630SOL    HW219890   5.690   0.625   1.439
 6631SOL     OW19891   5.654   1.541   1.341
 6631SOL    HW119892   5.597   1.583   1.270
 6631SOL    HW219893   5.684   1.611   1.405
 6632SOL     OW19894   0.144   0.530   0.825
 6632SOL    HW119895   0.169   0.579   0.742
 6632SOL    HW219896   0.215   0.543   0.895
 6633SOL     OW19897   5.864   0.237   1.249
 6633SOL    HW119898   5.835   0.254   1.343
 6633SOL    HW219899   5.875   0.139   1.234
 6634SOL     OW19900   5.619   1.279   1.283
 6634SOL    HW119901   5.654   1.217   1.354
 6634SOL    HW219902   5.638   1.374   1.309
 6635SOL     OW19903   5.873   0.805   0.995
 6635SOL    HW119904   5.944   0.813   0.926
 6635SOL    HW219905   5.876   0.715   1.037
 6636SOL     OW19906   5.689   1.781   0.947
 6636SOL    HW119907   5.639   1.717   0.889
 6636SOL    HW219908   5.787   1.775   0.927
 6637SOL     OW19909   5.608   0.501   1.094
 6637SOL    HW119910   5.682   0.456   1.044
 6637SOL    HW219911   5.631   0.507   1.191
 6638SOL     OW19912   5.814   0.522   1.705
 6638SOL    HW119913   5.900   0.494   1.663
 6638SOL    HW219914   5.775   0.599   1.653
 6639SOL     OW19915   5.836   1.570   1.759
 6639SOL    HW119916   5.802   1.637   1.825
 6639SOL    HW219917   5.839   1.480   1.802
 6640SOL     OW19918   5.694   1.119   1.472
 6640SOL    HW119919   5.707   1.072   1.560
 6640SOL    HW219920   5.745   1.070   1.401
 6641SOL     OW19921   5.699   1.285   1.032
 6641SOL    HW119922   5.666   1.283   1.126
 6641SOL    HW219923   5.626   1.254   0.971
 6642SOL     OW19924   5.708   1.804   1.831
 6642SOL    HW119925   5.637   1.738   1.851
 6642SOL    HW219926   5.743   1.843   1.916
 6643SOL     OW19927   5.909   1.316   1.581
 6643SOL    HW119928   5.960   1.384   1.528
 6643SOL    HW219929   5.877   1.243   1.521
 6644SOL     OW19930   5.719   1.007   1.710
 6644SOL    HW119931   5.633   0.980   1.755
 6644SOL    HW219932   5.784   1.038   1.780
 6645SOL     OW19933   5.675   0.384   0.069
 6645SOL    HW119934   5.584   0.406   0.103
 6645SOL    HW219935   5.671   0.368   5.970
 6646SOL     OW19936   5.668   0.160   0.356
 6646SOL    HW119937   5.608   0.220   0.303
 6646SOL    HW219938   5.738   0.122   0.295
 6647SOL     OW19939   0.189   0.844   1.453
 6647SOL    HW119940   0.214   0.894   1.370
 6647SOL    HW219941   0.266   0.788   1.484
 6648SOL     OW19942   5.743   1.275   1.871
 6648SOL    HW119943   5.707   1.250   1.781
 6648SOL    HW219944   5.668   1.293   1.934
 6649SOL     OW19945   5.683   1.229   0.621
 6649SOL    HW119946   5.649   1.177   0.698
 6649SOL    HW219947   5.780   1.207   0.606
 6650SOL     OW19948   5.628   1.132   0.299
 6650SOL    HW119949   5.721   1.108   0.270
 6650SOL    HW219950   5.609   1.087   0.387
 6651SOL     OW19951   5.863   0.619   1.978
 6651SOL    HW119952   5.798   0.598   2.052
 6651SOL    HW219953   5.826   0.586   1.891
 6652SOL     OW19954   5.789   0.308   2.870
 6652SOL    HW119955   5.838   0.284   2.954
 6652SOL    HW219956   5.718   0.240   2.852
 6653SOL     OW19957   5.582   0.369   2.515
 6653SOL    HW119958   5.491   0.395   2.546
 6653SOL    HW219959   5.575   0.294   2.450
 6654SOL     OW19960   0.236   0.980   2.498
 6654SOL    HW119961   0.303   0.964   2.571
 6654SOL    HW219962   0.190   1.067   2.514
 6655SOL     OW19963   5.852   1.509   2.907
 6655SOL    HW119964   5.796   1.427   2.914
 6655SOL    HW219965   5.949   1.484   2.902
 6656SOL     OW19966   5.784   1.688   2.327
 6656SOL    HW119967   5.769   1.762   2.392
 6656SOL    HW219968   5.874   1.699   2.284
 6657SOL     OW19969   5.837   1.430   2.362
 6657SOL    HW119970   5.805   1.524   2.361
 6657SOL    HW219971   5.761   1.369   2.385
 6658SOL     OW19972   5.894   1.076   2.792
 6658SOL    HW119973   5.856   0.983   2.796
 6658SOL    HW219974   5.825   1.141   2.823
 6659SOL     OW19975   5.741   0.659   2.388
 6659SOL    HW119976   5.706   0.567   2.404
 6659SOL    HW219977   5.737   0.712   2.472
 6660SOL     OW19978   5.577   1.599   1.963
 6660SOL    HW119979   5.595   1.504   1.989
 6660SOL    HW219980   5.576   1.656   2.045
 6661SOL     OW19981   5.728   0.752   3.435
 6661SOL    HW119982   5.802   0.799   3.483
 6661SOL    HW219983   5.648   0.811   3.429
 6662SOL     OW19984   5.811   0.926   3.131
 6662SOL    HW119985   5.872   0.900   3.056
 6662SOL    HW219986   5.716   0.921   3.099
 6663SOL     OW19987   5.690   0.842   2.617
 6663SOL    HW119988   5.748   0.802   2.688
 6663SOL    HW219989   5.623   0.902   2.659
 6664SOL     OW19990   5.669   1.823   3.416
 6664SOL    HW119991   5.684   1.802   3.512
 6664SOL    HW219992   5.588   1.881   3.407
 6665SOL     OW19993   5.792   0.290   3.361
 6665SOL    HW119994   5.729   0.367   3.370
 6665SOL    HW219995   5.775   0.225   3.435
 6666SOL     OW19996   0.048   1.747   2.228
 6666SOL    HW119997   0.105   1.732   2.308
 6666SOL    HW219998   0.105   1.775   2.150
 6667SOL     OW19999   5.849   1.820   3.078
 6667SOL    HW120000   5.811   1.755   3.144
 6667SOL    HW220001   5.866   1.773   2.991
 6668SOL     OW20002   5.898   0.036   2.032
 6668SOL    HW120003   5.923   0.131   2.009
 6668SOL    HW220004   5.927   0.016   2.126
 6669SOL     OW20005   5.674   0.536   3.257
 6669SOL    HW120006   5.761   0.504   3.220
 6669SOL    HW220007   5.689   0.623   3.305
 6670SOL     OW20008   5.656   1.538   3.206
 6670SOL    HW120009   5.602   1.582   3.134
 6670SOL    HW220010   5.696   1.608   3.265
 6671SOL     OW20011   0.138   0.527   2.694
 6671SOL    HW120012   0.147   0.584   2.612
 6671SOL    HW220013   0.219   0.538   2.752
 6672SOL     OW20014   5.866   0.230   3.114
 6672SOL    HW120015   5.843   0.251   3.209
 6672SOL    HW220016   5.868   0.131   3.101
 6673SOL     OW20017   5.615   1.272   3.150
 6673SOL    HW120018   5.667   1.211   3.209
 6673SOL    HW220019   5.635   1.367   3.174
 6674SOL     OW20020   5.869   0.796   2.853
 6674SOL    HW120021   5.941   0.802   2.784
 6674SOL    HW220022   5.869   0.705   2.894
 6675SOL     OW20023   5.575   1.333   2.079
 6675SOL    HW120024   5.478   1.344   2.058
 6675SOL    HW220025   5.590   1.241   2.115
 6676SOL     OW20026   5.687   1.790   2.817
 6676SOL    HW120027   5.648   1.714   2.765
 6676SOL    HW220028   5.784   1.800   2.794
 6677SOL     OW20029   5.601   0.501   2.949
 6677SOL    HW120030   5.676   0.457   2.899
 6677SOL    HW220031   5.618   0.493   3.047
 6678SOL     OW20032   5.807   0.523   3.573
 6678SOL    HW120033   5.890   0.494   3.525
 6678SOL    HW220034   5.768   0.603   3.528
 6679SOL     OW20035   5.836   1.569   3.623
 6679SOL    HW120036   5.802   1.638   3.686
 6679SOL    HW220037   5.841   1.480   3.669
 6680SOL     OW20038   5.723   1.105   3.326
 6680SOL    HW120039   5.720   1.067   3.419
 6680SOL    HW220040   5.768   1.041   3.265
 6681SOL     OW20041   5.715   1.269   2.895
 6681SOL    HW120042   5.672   1.268   2.986
 6681SOL    HW220043   5.648   1.242   2.826
 6682SOL     OW20044   5.702   1.803   3.690
 6682SOL    HW120045   5.631   1.737   3.714
 6682SOL    HW220046   5.739   1.844   3.774
 6683SOL     OW20047   5.909   1.320   3.443
 6683SOL    HW120048   5.957   1.388   3.388
 6683SOL    HW220049   5.876   1.246   3.385
 6684SOL     OW20050   5.705   1.016   3.567
 6684SOL    HW120051   5.615   0.989   3.601
 6684SOL    HW220052   5.764   1.041   3.644
 6685SOL     OW20053   5.667   0.362   1.884
 6685SOL    HW120054   5.572   0.340   1.865
 6685SOL    HW220055   5.699   0.432   1.820
 6686SOL     OW20056   5.691   0.206   2.200
 6686SOL    HW120057   5.618   0.246   2.143
 6686SOL    HW220058   5.758   0.162   2.140
 6687SOL     OW20059   0.195   0.829   3.319
 6687SOL    HW120060   0.221   0.879   3.237
 6687SOL    HW220061   0.270   0.770   3.348
 6688SOL     OW20062   5.745   1.281   3.736
 6688SOL    HW120063   5.709   1.254   3.647
 6688SOL    HW220064   5.669   1.293   3.800
 6689SOL     OW20065   5.680   1.235   2.490
 6689SOL    HW120066   5.641   1.198   2.575
 6689SOL    HW220067   5.772   1.199   2.476
 6690SOL     OW20068   5.623   1.071   2.139
 6690SOL    HW120069   5.722   1.073   2.150
 6690SOL    HW220070   5.590   0.977   2.149
 6691SOL     OW20071   5.848   0.629   3.847
 6691SOL    HW120072   5.769   0.633   3.909
 6691SOL    HW220073   5.819   0.588   3.761
 6692SOL     OW20074   5.791   0.312   4.731
 6692SOL    HW120075   5.837   0.293   4.817
 6692SOL    HW220076   5.721   0.243   4.713
 6693SOL     OW20077   5.579   0.373   4.380
 6693SOL    HW120078   5.488   0.403   4.410
 6693SOL    HW220079   5.569   0.294   4.320
 6694SOL     OW20080   0.223   0.976   4.364
 6694SOL    HW120081   0.296   0.968   4.432
 6694SOL    HW220082   0.182   1.068   4.369
 6695SOL     OW20083   5.865   1.504   4.777
 6695SOL    HW120084   5.806   1.424   4.778
 6695SOL    HW220085   5.961   1.475   4.780
 6696SOL     OW20086   5.786   1.689   4.187
 6696SOL    HW120087   5.783   1.767   4.249
 6696SOL    HW220088   5.870   1.692   4.133
 6697SOL     OW20089   5.833   1.426   4.231
 6697SOL    HW120090   5.806   1.523   4.233
 6697SOL    HW220091   5.752   1.369   4.240
 6698SOL     OW20092   5.889   1.081   4.673
 6698SOL    HW120093   5.851   0.989   4.666
 6698SOL    HW220094   5.817   1.145   4.699
 6699SOL     OW20095   5.735   0.659   4.251
 6699SOL    HW120096   5.707   0.564   4.268
 6699SOL    HW220097   5.728   0.711   4.335
 6700SOL     OW20098   5.570   1.604   3.825
 6700SOL    HW120099   5.589   1.508   3.846
 6700SOL    HW220100   5.568   1.657   3.910
 6701SOL     OW20101   5.734   0.763   5.297
 6701SOL    HW120102   5.800   0.808   5.358
 6701SOL    HW220103   5.651   0.818   5.292
 6702SOL     OW20104   5.820   0.923   4.999
 6702SOL    HW120105   5.882   0.896   4.925
 6702SOL    HW220106   5.726   0.925   4.965
 6703SOL     OW20107   5.678   0.841   4.480
 6703SOL    HW120108   5.739   0.801   4.549
 6703SOL    HW220109   5.604   0.889   4.526
 6704SOL     OW20110   5.670   1.826   5.280
 6704SOL    HW120111   5.687   1.810   5.377
 6704SOL    HW220112   5.589   1.884   5.270
 6705SOL     OW20113   5.794   0.293   5.226
 6705SOL    HW120114   5.722   0.362   5.216
 6705SOL    HW220115   5.772   0.234   5.304
 6706SOL     OW20116   0.041   1.750   4.091
 6706SOL    HW120117   0.102   1.733   4.168
 6706SOL    HW220118   0.094   1.783   4.013
 6707SOL     OW20119   5.852   1.819   4.938
 6707SOL    HW120120   5.816   1.754   5.005
 6707SOL    HW220121   5.863   1.773   4.850
 6708SOL     OW20122   5.905   0.033   3.892
 6708SOL    HW120123   5.922   0.129   3.866
 6708SOL    HW220124   5.928   0.020   3.988
 6709SOL     OW20125   5.674   0.535   5.116
 6709SOL    HW120126   5.760   0.504   5.076
 6709SOL    HW220127   5.687   0.625   5.159
 6710SOL     OW20128   5.669   1.541   5.060
 6710SOL    HW120129   5.608   1.585   4.995
 6710SOL    HW220130   5.697   1.607   5.130
 6711SOL     OW20131   0.136   0.537   4.553
 6711SOL    HW120132   0.149   0.576   4.462
 6711SOL    HW220133   0.222   0.540   4.603
 6712SOL     OW20134   5.874   0.240   4.977
 6712SOL    HW120135   5.847   0.262   5.071
 6712SOL    HW220136   5.873   0.140   4.964
 6713SOL     OW20137   5.628   1.278   5.013
 6713SOL    HW120138   5.673   1.215   5.076
 6713SOL    HW220139   5.656   1.372   5.034
 6714SOL     OW20140   5.867   0.793   4.713
 6714SOL    HW120141   5.939   0.803   4.644
 6714SOL    HW220142   5.875   0.703   4.757
 6715SOL     OW20143   5.575   1.338   3.945
 6715SOL    HW120144   5.478   1.349   3.923
 6715SOL    HW220145   5.592   1.244   3.976
 6716SOL     OW20146   5.689   1.792   4.681
 6716SOL    HW120147   5.648   1.717   4.630
 6716SOL    HW220148   5.786   1.800   4.656
 6717SOL     OW20149   5.600   0.500   4.814
 6717SOL    HW120150   5.678   0.460   4.766
 6717SOL    HW220151   5.615   0.495   4.912
 6718SOL     OW20152   5.804   0.540   5.453
 6718SOL    HW120153   5.851   0.483   5.386
 6718SOL    HW220154   5.770   0.623   5.410
 6719SOL     OW20155   5.837   1.565   5.497
 6719SOL    HW120156   5.788   1.621   5.564
 6719SOL    HW220157   5.839   1.470   5.527
 6720SOL     OW20158   5.717   1.100   5.195
 6720SOL    HW120159   5.710   1.075   5.292
 6720SOL    HW220160   5.765   1.027   5.145
 6721SOL     OW20161   5.708   1.266   4.760
 6721SOL    HW120162   5.671   1.267   4.853
 6721SOL    HW220163   5.636   1.239   4.696
 6722SOL     OW20164   5.720   1.814   5.569
 6722SOL    HW120165   5.645   1.749   5.584
 6722SOL    HW220166   5.762   1.836   5.657
 6723SOL     OW20167   5.913   1.325   5.280
 6723SOL    HW120168   5.968   1.399   5.242
 6723SOL    HW220169   5.892   1.258   5.209
 6724SOL     OW20170   5.679   1.026   5.453
 6724SOL    HW120171   5.587   1.009   5.489
 6724SOL    HW220172   5.745   1.024   5.528
 6725SOL     OW20173   5.673   0.337   3.748
 6725SOL    HW120174   5.573   0.331   3.737
 6725SOL    HW220175   5.710   0.401   3.681
 6726SOL     OW20176   5.691   0.202   4.066
 6726SOL    HW120177   5.621   0.246   4.009
 6726SOL    HW220178   5.761   0.161   4.007
 6727SOL     OW20179   0.182   0.851   5.176
 6727SOL    HW120180   0.196   0.895   5.087
 6727SOL    HW220181   0.265   0.802   5.203
 6728SOL     OW20182   5.768   1.304   5.596
 6728SOL    HW120183   5.731   1.257   5.516
 6728SOL    HW220184   5.699   1.306   5.668
 6729SOL     OW20185   5.678   1.234   4.354
 6729SOL    HW120186   5.642   1.198   4.440
 6729SOL    HW220187   5.773   1.206   4.342
 6730SOL     OW20188   5.626   1.079   3.986
 6730SOL    HW120189   5.723   1.077   4.009
 6730SOL    HW220190   5.587   0.988   3.999
 6731SOL     OW20191   5.860   0.604   5.703
 6731SOL    HW120192   5.777   0.633   5.752
 6731SOL    HW220193   5.836   0.581   5.609
 6732SOL     OW20194   5.798   1.772   0.025
 6732SOL    HW120195   5.817   1.827   0.106
 6732SOL    HW220196   5.884   1.757   5.975
 6733SOL     OW20197   5.576   1.615   5.683
 6733SOL    HW120198   5.593   1.517   5.692
 6733SOL    HW220199   5.557   1.655   5.772
 6734SOL     OW20200   0.066   1.780   5.936
 6734SOL    HW120201   0.080   1.700   5.993
 6734SOL    HW220202   0.149   1.800   5.885
 6735SOL     OW20203   5.867   0.034   5.762
 6735SOL    HW120204   5.894   0.118   5.716
 6735SOL    HW220205   5.942   0.003   5.821
 6736SOL     OW20206   5.566   1.298   5.768
 6736SOL    HW120207   5.480   1.317   5.720
 6736SOL    HW220208   5.557   1.212   5.819
 6737SOL     OW20209   5.659   0.330   5.587
 6737SOL    HW120210   5.577   0.329   5.529
 6737SOL    HW220211   5.708   0.416   5.575
 6738SOL     OW20212   5.673   0.146   5.920
 6738SOL    HW120213   5.627   0.202   5.851
 6738SOL    HW220214   5.738   0.085   5.874
 6739SOL     OW20215   5.632   1.043   5.855
 6739SOL    HW120216   5.724   1.024   5.889
 6739SOL    HW220217   5.574   0.963   5.869
 6740SOL     OW20218   5.785   2.511   0.108
 6740SOL    HW120219   5.750   2.503   0.201
 6740SOL    HW220220   5.788   2.421   0.065
 6741SOL     OW20221   5.851   2.131   0.960
 6741SOL    HW120222   5.871   2.122   1.058
 6741SOL    HW220223   5.755   2.107   0.944
 6742SOL     OW20224   5.602   2.235   0.653
 6742SOL    HW120225   5.517   2.263   0.698
 6742SOL    HW220226   5.584   2.160   0.590
 6743SOL     OW20227   0.228   2.839   0.658
 6743SOL    HW120228   0.305   2.776   0.666
 6743SOL    HW220229   0.214   2.886   0.745
 6744SOL     OW20230   5.858   3.370   1.043
 6744SOL    HW120231   5.805   3.286   1.043
 6744SOL    HW220232   5.955   3.350   1.027
 6745SOL     OW20233   5.795   3.561   0.465
 6745SOL    HW120234   5.800   3.642   0.523
 6745SOL    HW220235   5.878   3.555   0.410
 6746SOL     OW20236   5.842   3.301   0.524
 6746SOL    HW120237   5.810   3.395   0.516
 6746SOL    HW220238   5.769   3.244   0.560
 6747SOL     OW20239   5.889   2.940   0.935
 6747SOL    HW120240   5.862   2.845   0.953
 6747SOL    HW220241   5.818   3.002   0.969
 6748SOL     OW20242   5.741   2.507   0.548
 6748SOL    HW120243   5.715   2.416   0.580
 6748SOL    HW220244   5.716   2.574   0.617
 6749SOL     OW20245   5.592   3.379   0.160
 6749SOL    HW120246   5.502   3.336   0.152
 6749SOL    HW220247   5.584   3.463   0.214
 6750SOL     OW20248   5.729   2.618   1.576
 6750SOL    HW120249   5.804   2.661   1.627
 6750SOL    HW220250   5.651   2.681   1.573
 6751SOL     OW20251   5.792   2.805   1.259
 6751SOL    HW120252   5.853   2.756   1.196
 6751SOL    HW220253   5.697   2.782   1.238
 6752SOL     OW20254   5.663   2.690   0.734
 6752SOL    HW120255   5.754   2.682   0.773
 6752SOL    HW220256   5.599   2.721   0.804
 6753SOL     OW20257   5.665   3.683   1.546
 6753SOL    HW120258   5.685   3.662   1.642
 6753SOL    HW220259   5.582   3.740   1.542
 6754SOL     OW20260   5.792   2.148   1.490
 6754SOL    HW120261   5.729   2.223   1.474
 6754SOL    HW220262   5.758   2.090   1.564
 6755SOL     OW20263   0.040   3.593   0.313
 6755SOL    HW120264   0.086   3.582   0.402
 6755SOL    HW220265   0.109   3.604   0.242
 6756SOL     OW20266   5.844   3.688   1.211
 6756SOL    HW120267   5.812   3.627   1.284
 6756SOL    HW220268   5.865   3.634   1.130
 6757SOL     OW20269   5.662   2.402   1.420
 6757SOL    HW120270   5.749   2.398   1.371
 6757SOL    HW220271   5.657   2.486   1.473
 6758SOL     OW20272   5.660   3.402   1.342
 6758SOL    HW120273   5.603   3.442   1.270
 6758SOL    HW220274   5.692   3.475   1.403
 6759SOL     OW20275   0.152   2.375   0.838
 6759SOL    HW120276   0.175   2.423   0.753
 6759SOL    HW220277   0.230   2.375   0.899
 6760SOL     OW20278   5.879   2.087   1.222
 6760SOL    HW120279   5.862   2.118   1.315
 6760SOL    HW220280   5.864   1.989   1.215
 6761SOL     OW20281   5.615   3.138   1.282
 6761SOL    HW120282   5.652   3.073   1.348
 6761SOL    HW220283   5.640   3.231   1.309
 6762SOL     OW20284   5.840   1.915   0.606
 6762SOL    HW120285   5.790   2.001   0.595
 6762SOL    HW220286   5.880   1.911   0.698
 6763SOL     OW20287   5.874   2.661   0.996
 6763SOL    HW120288   5.948   2.672   0.929
 6763SOL    HW220289   5.881   2.570   1.038
 6764SOL     OW20290   5.685   3.638   0.945
 6764SOL    HW120291   5.634   3.568   0.894
 6764SOL    HW220292   5.782   3.630   0.925
 6765SOL     OW20293   5.602   2.370   1.080
 6765SOL    HW120294   5.680   2.341   1.024
 6765SOL    HW220295   5.620   2.347   1.175
 6766SOL     OW20296   5.786   2.381   1.735
 6766SOL    HW120297   5.806   2.316   1.662
 6766SOL    HW220298   5.765   2.471   1.696
 6767SOL     OW20299   5.835   3.429   1.759
 6767SOL    HW120300   5.805   3.499   1.823
 6767SOL    HW220301   5.845   3.341   1.807
 6768SOL     OW20302   5.697   2.971   1.463
 6768SOL    HW120303   5.707   2.927   1.552
 6768SOL    HW220304   5.751   2.922   1.395
 6769SOL     OW20305   5.706   3.132   1.030
 6769SOL    HW120306   5.670   3.133   1.124
 6769SOL    HW220307   5.636   3.100   0.967
 6770SOL     OW20308   5.710   3.666   1.830
 6770SOL    HW120309   5.638   3.600   1.850
 6770SOL    HW220310   5.742   3.707   1.915
 6771SOL     OW20311   5.900   3.186   1.574
 6771SOL    HW120312   5.958   3.249   1.522
 6771SOL    HW220313   5.876   3.108   1.517
 6772SOL     OW20314   5.716   2.876   1.703
 6772SOL    HW120315   5.629   2.852   1.744
 6772SOL    HW220316   5.781   2.901   1.774
 6773SOL     OW20317   5.724   2.244   0.021
 6773SOL    HW120318   5.711   2.149   0.047
 6773SOL    HW220319   5.718   2.253   5.921
 6774SOL     OW20320   5.678   1.989   0.346
 6774SOL    HW120321   5.620   2.048   0.290
 6774SOL    HW220322   5.762   1.968   0.296
 6775SOL     OW20323   0.187   2.693   1.445
 6775SOL    HW120324   0.195   2.735   1.354
 6775SOL    HW220325   0.278   2.665   1.477
 6776SOL     OW20326   5.745   3.142   1.876
 6776SOL    HW120327   5.707   3.116   1.787
 6776SOL    HW220328   5.670   3.157   1.941
 6777SOL     OW20329   5.690   3.099   0.629
 6777SOL    HW120330   5.655   3.057   0.713
 6777SOL    HW220331   5.783   3.067   0.612
 6778SOL     OW20332   5.623   2.978   0.298
 6778SOL    HW120333   5.720   2.971   0.272
 6778SOL    HW220334   5.601   2.908   0.365
 6779SOL     OW20335   5.861   2.481   1.983
 6779SOL    HW120336   5.797   2.458   2.056
 6779SOL    HW220337   5.824   2.451   1.895
 6780SOL     OW20338   5.842   2.130   2.822
 6780SOL    HW120339   5.872   2.119   2.917
 6780SOL    HW220340   5.746   2.104   2.814
 6781SOL     OW20341   5.603   2.239   2.513
 6781SOL    HW120342   5.525   2.268   2.568
 6781SOL    HW220343   5.576   2.162   2.455
 6782SOL     OW20344   0.233   2.830   2.505
 6782SOL    HW120345   0.308   2.829   2.571
 6782SOL    HW220346   0.187   2.919   2.509
 6783SOL     OW20347   5.856   3.377   2.910
 6783SOL    HW120348   5.808   3.289   2.913
 6783SOL    HW220349   5.953   3.361   2.896
 6784SOL     OW20350   5.788   3.549   2.326
 6784SOL    HW120351   5.773   3.624   2.390
 6784SOL    HW220352   5.878   3.559   2.283
 6785SOL     OW20353   5.833   3.287   2.360
 6785SOL    HW120354   5.803   3.382   2.359
 6785SOL    HW220355   5.754   3.226   2.370
 6786SOL     OW20356   5.898   2.936   2.797
 6786SOL    HW120357   5.862   2.842   2.801
 6786SOL    HW220358   5.827   2.999   2.828
 6787SOL     OW20359   5.744   2.514   2.399
 6787SOL    HW120360   5.714   2.423   2.428
 6787SOL    HW220361   5.732   2.579   2.474
 6788SOL     OW20362   5.569   3.467   1.959
 6788SOL    HW120363   5.592   3.372   1.981
 6788SOL    HW220364   5.570   3.522   2.043
 6789SOL     OW20365   5.722   2.615   3.440
 6789SOL    HW120366   5.798   2.663   3.485
 6789SOL    HW220367   5.643   2.676   3.435
 6790SOL     OW20368   5.795   2.805   3.121
 6790SOL    HW120369   5.860   2.771   3.052
 6790SOL    HW220370   5.703   2.774   3.097
 6791SOL     OW20371   5.690   2.697   2.613
 6791SOL    HW120372   5.757   2.656   2.676
 6791SOL    HW220373   5.618   2.742   2.666
 6792SOL     OW20374   5.663   3.690   3.417
 6792SOL    HW120375   5.681   3.668   3.512
 6792SOL    HW220376   5.579   3.744   3.410
 6793SOL     OW20377   5.791   2.146   3.350
 6793SOL    HW120378   5.730   2.224   3.337
 6793SOL    HW220379   5.755   2.087   3.422
 6794SOL     OW20380   0.043   3.613   2.229
 6794SOL    HW120381   0.106   3.595   2.306
 6794SOL    HW220382   0.095   3.652   2.153
 6795SOL     OW20383   5.849   3.685   3.077
 6795SOL    HW120384   5.814   3.618   3.143
 6795SOL    HW220385   5.868   3.639   2.990
 6796SOL     OW20386   5.885   1.904   2.030
 6796SOL    HW120387   5.942   1.956   1.967
 6796SOL    HW220388   5.941   1.868   2.105
 6797SOL     OW20389   5.668   2.399   3.281
 6797SOL    HW120390   5.752   2.401   3.227
 6797SOL    HW220391   5.663   2.482   3.338
 6798SOL     OW20392   5.662   3.402   3.207
 6798SOL    HW120393   5.612   3.448   3.133
 6798SOL    HW220394   5.698   3.470   3.270
 6799SOL     OW20395   0.154   2.383   2.701
 6799SOL    HW120396   0.177   2.426   2.613
 6799SOL    HW220397   0.237   2.376   2.757
 6800SOL     OW20398   5.885   2.081   3.086
 6800SOL    HW120399   5.864   2.115   3.178
 6800SOL    HW220400   5.867   1.983   3.082
 6801SOL     OW20401   5.618   3.135   3.147
 6801SOL    HW120402   5.664   3.073   3.210
 6801SOL    HW220403   5.637   3.229   3.174
 6802SOL     OW20404   5.816   1.907   2.474
 6802SOL    HW120405   5.864   1.995   2.471
 6802SOL    HW220406   5.847   1.854   2.553
 6803SOL     OW20407   5.877   2.654   2.848
 6803SOL    HW120408   5.949   2.665   2.780
 6803SOL    HW220409   5.890   2.568   2.897
 6804SOL     OW20410   5.575   3.207   2.085
 6804SOL    HW120411   5.479   3.217   2.061
 6804SOL    HW220412   5.593   3.112   2.113
 6805SOL     OW20413   5.686   3.650   2.816
 6805SOL    HW120414   5.647   3.573   2.765
 6805SOL    HW220415   5.782   3.662   2.791
 6806SOL     OW20416   5.605   2.372   2.941
 6806SOL    HW120417   5.679   2.338   2.883
 6806SOL    HW220418   5.622   2.346   3.036
 6807SOL     OW20419   5.786   2.384   3.595
 6807SOL    HW120420   5.814   2.322   3.521
 6807SOL    HW220421   5.762   2.473   3.556
 6808SOL     OW20422   5.831   3.432   3.621
 6808SOL    HW120423   5.803   3.499   3.691
 6808SOL    HW220424   5.837   3.341   3.663
 6809SOL     OW20425   5.721   2.976   3.325
 6809SOL    HW120426   5.727   2.930   3.414
 6809SOL    HW220427   5.764   2.919   3.255
 6810SOL     OW20428   5.718   3.134   2.892
 6810SOL    HW120429   5.678   3.133   2.984
 6810SOL    HW220430   5.649   3.106   2.825
 6811SOL     OW20431   5.700   3.672   3.691
 6811SOL    HW120432   5.630   3.605   3.713
 6811SOL    HW220433   5.738   3.709   3.776
 6812SOL     OW20434   5.908   3.185   3.442
 6812SOL    HW120435   5.961   3.246   3.383
 6812SOL    HW220436   5.875   3.108   3.388
 6813SOL     OW20437   5.719   2.888   3.566
 6813SOL    HW120438   5.629   2.860   3.599
 6813SOL    HW220439   5.781   2.901   3.643
 6814SOL     OW20440   5.660   2.240   1.916
 6814SOL    HW120441   5.578   2.206   1.868
 6814SOL    HW220442   5.709   2.304   1.857
 6815SOL     OW20443   5.660   1.988   2.170
 6815SOL    HW120444   5.638   2.075   2.127
 6815SOL    HW220445   5.749   1.957   2.138
 6816SOL     OW20446   0.189   2.696   3.315
 6816SOL    HW120447   0.195   2.741   3.226
 6816SOL    HW220448   0.279   2.664   3.343
 6817SOL     OW20449   5.743   3.146   3.735
 6817SOL    HW120450   5.706   3.109   3.651
 6817SOL    HW220451   5.669   3.163   3.800
 6818SOL     OW20452   5.682   3.091   2.485
 6818SOL    HW120453   5.642   3.050   2.567
 6818SOL    HW220454   5.778   3.065   2.478
 6819SOL     OW20455   5.625   2.953   2.129
 6819SOL    HW120456   5.724   2.952   2.146
 6819SOL    HW220457   5.588   2.861   2.142
 6820SOL     OW20458   5.861   2.479   3.844
 6820SOL    HW120459   5.797   2.452   3.915
 6820SOL    HW220460   5.829   2.446   3.755
 6821SOL     OW20461   5.846   2.131   4.689
 6821SOL    HW120462   5.876   2.120   4.784
 6821SOL    HW220463   5.749   2.104   4.682
 6822SOL     OW20464   5.602   2.240   4.376
 6822SOL    HW120465   5.523   2.267   4.429
 6822SOL    HW220466   5.579   2.161   4.318
 6823SOL     OW20467   0.229   2.830   4.364
 6823SOL    HW120468   0.308   2.827   4.425
 6823SOL    HW220469   0.185   2.919   4.370
 6824SOL     OW20470   5.853   3.371   4.774
 6824SOL    HW120471   5.804   3.283   4.774
 6824SOL    HW220472   5.951   3.354   4.764
 6825SOL     OW20473   5.787   3.552   4.191
 6825SOL    HW120474   5.772   3.629   4.253
 6825SOL    HW220475   5.877   3.561   4.147
 6826SOL     OW20476   5.836   3.287   4.231
 6826SOL    HW120477   5.807   3.383   4.232
 6826SOL    HW220478   5.756   3.228   4.239
 6827SOL     OW20479   5.890   2.939   4.668
 6827SOL    HW120480   5.855   2.845   4.674
 6827SOL    HW220481   5.818   3.003   4.696
 6828SOL     OW20482   5.740   2.519   4.264
 6828SOL    HW120483   5.712   2.428   4.295
 6828SOL    HW220484   5.736   2.583   4.341
 6829SOL     OW20485   5.565   3.473   3.825
 6829SOL    HW120486   5.592   3.378   3.844
 6829SOL    HW220487   5.568   3.526   3.910
 6830SOL     OW20488   5.729   2.630   5.306
 6830SOL    HW120489   5.797   2.671   5.367
 6830SOL    HW220490   5.651   2.691   5.297
 6831SOL     OW20491   5.805   2.804   4.996
 6831SOL    HW120492   5.863   2.777   4.919
 6831SOL    HW220493   5.712   2.769   4.982
 6832SOL     OW20494   5.695   2.705   4.472
 6832SOL    HW120495   5.761   2.679   4.542
 6832SOL    HW220496   5.611   2.736   4.516
 6833SOL     OW20497   5.673   3.692   5.280
 6833SOL    HW120498   5.703   3.690   5.375
 6833SOL    HW220499   5.585   3.738   5.274
 6834SOL     OW20500   5.793   2.134   5.222
 6834SOL    HW120501   5.718   2.195   5.196
 6834SOL    HW220502   5.777   2.096   5.313
 6835SOL     OW20503   0.045   3.611   4.090
 6835SOL    HW120504   0.105   3.592   4.168
 6835SOL    HW220505   0.098   3.650   4.015
 6836SOL     OW20506   5.843   3.689   4.930
 6836SOL    HW120507   5.814   3.628   5.004
 6836SOL    HW220508   5.859   3.636   4.847
 6837SOL     OW20509   5.879   1.901   3.891
 6837SOL    HW120510   5.939   1.954   3.830
 6837SOL    HW220511   5.930   1.874   3.973
 6838SOL     OW20512   5.663   2.405   5.137
 6838SOL    HW120513   5.750   2.402   5.088
 6838SOL    HW220514   5.657   2.490   5.190
 6839SOL     OW20515   5.665   3.404   5.070
 6839SOL    HW120516   5.607   3.446   5.000
 6839SOL    HW220517   5.696   3.474   5.134
 6840SOL     OW20518   0.156   2.382   4.558
 6840SOL    HW120519   0.180   2.425   4.471
 6840SOL    HW220520   0.238   2.374   4.616
 6841SOL     OW20521   5.893   2.080   4.957
 6841SOL    HW120522   5.871   2.112   5.049
 6841SOL    HW220523   5.870   1.983   4.949
 6842SOL     OW20524   5.638   3.142   5.008
 6842SOL    HW120525   5.675   3.079   5.076
 6842SOL    HW220526   5.656   3.237   5.036
 6843SOL     OW20527   5.824   1.905   4.333
 6843SOL    HW120528   5.872   1.993   4.322
 6843SOL    HW220529   5.853   1.862   4.419
 6844SOL     OW20530   5.879   2.660   4.713
 6844SOL    HW120531   5.951   2.668   4.645
 6844SOL    HW220532   5.886   2.571   4.758
 6845SOL     OW20533   5.575   3.205   3.941
 6845SOL    HW120534   5.479   3.217   3.919
 6845SOL    HW220535   5.592   3.111   3.970
 6846SOL     OW20536   5.691   3.655   4.681
 6846SOL    HW120537   5.651   3.579   4.631
 6846SOL    HW220538   5.786   3.666   4.654
 6847SOL     OW20539   5.605   2.380   4.796
 6847SOL    HW120540   5.680   2.342   4.742
 6847SOL    HW220541   5.622   2.362   4.893
 6848SOL     OW20542   5.793   2.390   5.443
 6848SOL    HW120543   5.808   2.324   5.370
 6848SOL    HW220544   5.772   2.480   5.403
 6849SOL     OW20545   5.841   3.441   5.491
 6849SOL    HW120546   5.802   3.495   5.565
 6849SOL    HW220547   5.840   3.344   5.516
 6850SOL     OW20548   5.701   2.970   5.195
 6850SOL    HW120549   5.713   2.936   5.289
 6850SOL    HW220550   5.758   2.915   5.133
 6851SOL     OW20551   5.714   3.134   4.757
 6851SOL    HW120552   5.677   3.134   4.851
 6851SOL    HW220553   5.643   3.103   4.694
 6852SOL     OW20554   5.715   3.692   5.566
 6852SOL    HW120555   5.647   3.620   5.580
 6852SOL    HW220556   5.763   3.710   5.652
 6853SOL     OW20557   5.904   3.203   5.275
 6853SOL    HW120558   5.965   3.273   5.239
 6853SOL    HW220559   5.897   3.127   5.210
 6854SOL     OW20560   5.687   2.893   5.456
 6854SOL    HW120561   5.593   2.870   5.480
 6854SOL    HW220562   5.742   2.899   5.540
 6855SOL     OW20563   5.664   2.233   3.779
 6855SOL    HW120564   5.584   2.194   3.735
 6855SOL    HW220565   5.708   2.298   3.717
 6856SOL     OW20566   5.655   1.984   4.025
 6856SOL    HW120567   5.634   2.073   3.984
 6856SOL    HW220568   5.742   1.951   3.987
 6857SOL     OW20569   0.187   2.695   5.168
 6857SOL    HW120570   0.196   2.741   5.080
 6857SOL    HW220571   0.278   2.665   5.199
 6858SOL     OW20572   5.771   3.167   5.592
 6858SOL    HW120573   5.736   3.133   5.505
 6858SOL    HW220574   5.698   3.167   5.660
 6859SOL     OW20575   5.679   3.093   4.352
 6859SOL    HW120576   5.641   3.055   4.436
 6859SOL    HW220577   5.775   3.067   4.344
 6860SOL     OW20578   5.626   2.951   3.985
 6860SOL    HW120579   5.724   2.952   4.005
 6860SOL    HW220580   5.588   2.861   4.003
 6861SOL     OW20581   5.863   2.477   5.698
 6861SOL    HW120582   5.785   2.523   5.740
 6861SOL    HW220583   5.837   2.443   5.607
 6862SOL     OW20584   5.798   3.614   0.025
 6862SOL    HW120585   5.814   3.677   0.101
 6862SOL    HW220586   5.882   3.604   5.971
 6863SOL     OW20587   5.589   3.482   5.679
 6863SOL    HW120588   5.602   3.383   5.683
 6863SOL    HW220589   5.570   3.517   5.771
 6864SOL     OW20590   0.066   3.639   5.935
 6864SOL    HW120591   0.080   3.556   5.990
 6864SOL    HW220592   0.152   3.663   5.889
 6865SOL     OW20593   5.885   1.891   5.763
 6865SOL    HW120594   5.933   1.956   5.703
 6865SOL    HW220595   5.945   1.865   5.838
 6866SOL     OW20596   5.890   1.929   0.210
 6866SOL    HW120597   5.941   2.015   0.220
 6866SOL    HW220598   5.943   1.854   0.250
 6867SOL     OW20599   5.571   3.185   5.766
 6867SOL    HW120600   5.482   3.196   5.720
 6867SOL    HW220601   5.568   3.103   5.824
 6868SOL     OW20602   5.666   2.217   5.633
 6868SOL    HW120603   5.585   2.185   5.584
 6868SOL    HW220604   5.711   2.289   5.580
 6869SOL     OW20605   5.656   1.998   5.873
 6869SOL    HW120606   5.643   2.062   5.797
 6869SOL    HW220607   5.741   1.947   5.860
 6870SOL     OW20608   5.630   2.932   5.862
 6870SOL    HW120609   5.712   2.916   5.916
 6870SOL    HW220610   5.571   2.851   5.865
 6871SOL     OW20611   5.786   4.367   0.107
 6871SOL    HW120612   5.756   4.361   0.202
 6871SOL    HW220613   5.785   4.276   0.066
 6872SOL     OW20614   5.850   3.996   0.952
 6872SOL    HW120615   5.874   3.985   1.049
 6872SOL    HW220616   5.755   3.969   0.939
 6873SOL     OW20617   5.603   4.097   0.653
 6873SOL    HW120618   5.517   4.123   0.698
 6873SOL    HW220619   5.585   4.023   0.589
 6874SOL     OW20620   0.231   4.702   0.655
 6874SOL    HW120621   0.302   4.632   0.657
 6874SOL    HW220622   0.221   4.743   0.745
 6875SOL     OW20623   5.855   5.213   1.026
 6875SOL    HW120624   5.800   5.129   1.031
 6875SOL    HW220625   5.952   5.188   1.023
 6876SOL     OW20626   5.807   5.417   0.458
 6876SOL    HW120627   5.803   5.501   0.513
 6876SOL    HW220628   5.895   5.413   0.410
 6877SOL     OW20629   5.847   5.154   0.493
 6877SOL    HW120630   5.819   5.250   0.489
 6877SOL    HW220631   5.782   5.102   0.548
 6878SOL     OW20632   5.895   4.800   0.934
 6878SOL    HW120633   5.862   4.707   0.951
 6878SOL    HW220634   5.830   4.866   0.971
 6879SOL     OW20635   5.742   4.372   0.546
 6879SOL    HW120636   5.719   4.281   0.579
 6879SOL    HW220637   5.720   4.440   0.616
 6880SOL     OW20638   5.605   5.251   0.167
 6880SOL    HW120639   5.526   5.194   0.190
 6880SOL    HW220640   5.594   5.341   0.209
 6881SOL     OW20641   5.733   4.473   1.580
 6881SOL    HW120642   5.811   4.512   1.629
 6881SOL    HW220643   5.659   4.541   1.575
 6882SOL     OW20644   5.802   4.648   1.261
 6882SOL    HW120645   5.856   4.599   1.192
 6882SOL    HW220646   5.705   4.639   1.239
 6883SOL     OW20647   5.670   4.549   0.739
 6883SOL    HW120648   5.748   4.526   0.797
 6883SOL    HW220649   5.596   4.585   0.796
 6884SOL     OW20650   5.663   5.575   1.570
 6884SOL    HW120651   5.684   5.537   1.660
 6884SOL    HW220652   5.574   5.621   1.572
 6885SOL     OW20653   5.790   4.009   1.489
 6885SOL    HW120654   5.728   4.086   1.479
 6885SOL    HW220655   5.757   3.949   1.562
 6886SOL     OW20656   0.061   5.452   0.316
 6886SOL    HW120657   0.101   5.434   0.406
 6886SOL    HW220658   0.133   5.450   0.246
 6887SOL     OW20659   5.850   5.505   1.210
 6887SOL    HW120660   5.821   5.421   1.256
 6887SOL    HW220661   5.844   5.492   1.111
 6888SOL     OW20662   5.665   4.258   1.419
 6888SOL    HW120663   5.750   4.253   1.368
 6888SOL    HW220664   5.663   4.342   1.473
 6889SOL     OW20665   5.654   5.260   1.346
 6889SOL    HW120666   5.602   5.306   1.273
 6889SOL    HW220667   5.694   5.329   1.406
 6890SOL     OW20668   0.152   4.237   0.839
 6890SOL    HW120669   0.176   4.288   0.756
 6890SOL    HW220670   0.232   4.234   0.900
 6891SOL     OW20671   5.867   3.952   1.216
 6891SOL    HW120672   5.843   3.983   1.308
 6891SOL    HW220673   5.862   3.852   1.212
 6892SOL     OW20674   5.612   4.990   1.284
 6892SOL    HW120675   5.654   4.930   1.351
 6892SOL    HW220676   5.631   5.085   1.307
 6893SOL     OW20677   5.838   3.782   0.607
 6893SOL    HW120678   5.784   3.866   0.608
 6893SOL    HW220679   5.884   3.769   0.695
 6894SOL     OW20680   5.875   4.521   0.998
 6894SOL    HW120681   5.950   4.536   0.933
 6894SOL    HW220682   5.884   4.429   1.037
 6895SOL     OW20683   5.688   5.505   0.937
 6895SOL    HW120684   5.641   5.429   0.891
 6895SOL    HW220685   5.784   5.506   0.910
 6896SOL     OW20686   5.603   4.230   1.080
 6896SOL    HW120687   5.683   4.206   1.025
 6896SOL    HW220688   5.621   4.206   1.176
 6897SOL     OW20689   5.784   4.240   1.736
 6897SOL    HW120690   5.821   4.180   1.665
 6897SOL    HW220691   5.760   4.328   1.695
 6898SOL     OW20692   5.839   5.273   1.762
 6898SOL    HW120693   5.809   5.351   1.817
 6898SOL    HW220694   5.834   5.189   1.817
 6899SOL     OW20695   5.709   4.836   1.463
 6899SOL    HW120696   5.711   4.796   1.555
 6899SOL    HW220697   5.764   4.779   1.401
 6900SOL     OW20698   5.709   4.974   1.035
 6900SOL    HW120699   5.663   4.980   1.124
 6900SOL    HW220700   5.647   4.931   0.969
 6901SOL     OW20701   5.727   5.500   1.845
 6901SOL    HW120702   5.660   5.433   1.876
 6901SOL    HW220703   5.759   5.554   1.922
 6902SOL     OW20704   5.905   5.037   1.582
 6902SOL    HW120705   5.957   5.102   1.527
 6902SOL    HW220706   5.866   4.966   1.522
 6903SOL     OW20707   5.712   4.748   1.701
 6903SOL    HW120708   5.621   4.724   1.735
 6903SOL    HW220709   5.775   4.757   1.777
 6904SOL     OW20710   5.720   4.104   0.023
 6904SOL    HW120711   5.711   4.008   0.048
 6904SOL    HW220712   5.710   4.114   5.924
 6905SOL     OW20713   5.679   3.850   0.345
 6905SOL    HW120714   5.620   3.909   0.290
 6905SOL    HW220715   5.759   3.824   0.291
 6906SOL     OW20716   0.189   4.558   1.445
 6906SOL    HW120717   0.196   4.599   1.354
 6906SOL    HW220718   0.280   4.531   1.477
 6907SOL     OW20719   5.743   5.007   1.882
 6907SOL    HW120720   5.709   4.971   1.795
 6907SOL    HW220721   5.666   5.022   1.944
 6908SOL     OW20722   5.692   4.964   0.634
 6908SOL    HW120723   5.652   4.918   0.714
 6908SOL    HW220724   5.781   4.924   0.614
 6909SOL     OW20725   5.627   4.851   0.301
 6909SOL    HW120726   5.723   4.834   0.276
 6909SOL    HW220727   5.596   4.779   0.363
 6910SOL     OW20728   5.860   4.344   1.981
 6910SOL    HW120729   5.795   4.322   2.055
 6910SOL    HW220730   5.825   4.308   1.895
 6911SOL     OW20731   5.846   3.991   2.823
 6911SOL    HW120732   5.875   3.982   2.919
 6911SOL    HW220733   5.749   3.967   2.815
 6912SOL     OW20734   5.605   4.097   2.515
 6912SOL    HW120735   5.528   4.127   2.571
 6912SOL    HW220736   5.575   4.023   2.455
 6913SOL     OW20737   0.224   4.705   2.488
 6913SOL    HW120738   0.295   4.692   2.558
 6913SOL    HW220739   0.174   4.790   2.507
 6914SOL     OW20740   5.860   5.214   2.899
 6914SOL    HW120741   5.799   5.135   2.903
 6914SOL    HW220742   5.955   5.183   2.898
 6915SOL     OW20743   5.792   5.418   2.316
 6915SOL    HW120744   5.779   5.485   2.389
 6915SOL    HW220745   5.882   5.432   2.274
 6916SOL     OW20746   5.833   5.155   2.338
 6916SOL    HW120747   5.805   5.249   2.321
 6916SOL    HW220748   5.759   5.106   2.384
 6917SOL     OW20749   5.904   4.796   2.794
 6917SOL    HW120750   5.863   4.705   2.801
 6917SOL    HW220751   5.838   4.864   2.827
 6918SOL     OW20752   5.748   4.373   2.398
 6918SOL    HW120753   5.715   4.283   2.427
 6918SOL    HW220754   5.734   4.438   2.473
 6919SOL     OW20755   5.574   5.322   1.965
 6919SOL    HW120756   5.593   5.227   1.989
 6919SOL    HW220757   5.566   5.377   2.048
 6920SOL     OW20758   5.722   4.481   3.443
 6920SOL    HW120759   5.802   4.533   3.474
 6920SOL    HW220760   5.643   4.542   3.438
 6921SOL     OW20761   5.804   4.651   3.125
 6921SOL    HW120762   5.860   4.611   3.053
 6921SOL    HW220763   5.707   4.637   3.103
 6922SOL     OW20764   5.693   4.555   2.611
 6922SOL    HW120765   5.758   4.521   2.679
 6922SOL    HW220766   5.613   4.592   2.657
 6923SOL     OW20767   5.665   5.568   3.427
 6923SOL    HW120768   5.685   5.536   3.520
 6923SOL    HW220769   5.580   5.620   3.427
 6924SOL     OW20770   5.789   4.008   3.351
 6924SOL    HW120771   5.729   4.086   3.337
 6924SOL    HW220772   5.753   3.951   3.425
 6925SOL     OW20773   0.053   5.488   2.221
 6925SOL    HW120774   0.103   5.462   2.303
 6925SOL    HW220775   0.114   5.484   2.142
 6926SOL     OW20776   5.841   5.519   3.082
 6926SOL    HW120777   5.832   5.434   3.135
 6926SOL    HW220778   5.858   5.497   2.986
 6927SOL     OW20779   5.877   3.770   2.032
 6927SOL    HW120780   5.940   3.816   1.969
 6927SOL    HW220781   5.928   3.740   2.113
 6928SOL     OW20782   5.666   4.261   3.283
 6928SOL    HW120783   5.750   4.263   3.229
 6928SOL    HW220784   5.660   4.344   3.338
 6929SOL     OW20785   5.651   5.268   3.215
 6929SOL    HW120786   5.600   5.315   3.143
 6929SOL    HW220787   5.693   5.336   3.276
 6930SOL     OW20788   0.154   4.245   2.705
 6930SOL    HW120789   0.181   4.289   2.619
 6930SOL    HW220790   0.236   4.224   2.758
 6931SOL     OW20791   5.878   3.949   3.088
 6931SOL    HW120792   5.854   3.981   3.180
 6931SOL    HW220793   5.868   3.850   3.084
 6932SOL     OW20794   5.614   4.993   3.150
 6932SOL    HW120795   5.667   4.935   3.212
 6932SOL    HW220796   5.628   5.089   3.175
 6933SOL     OW20797   5.814   3.764   2.478
 6933SOL    HW120798   5.852   3.857   2.475
 6933SOL    HW220799   5.851   3.716   2.557
 6934SOL     OW20800   5.871   4.519   2.847
 6934SOL    HW120801   5.941   4.533   2.778
 6934SOL    HW220802   5.886   4.431   2.892
 6935SOL     OW20803   5.567   5.065   2.079
 6935SOL    HW120804   5.469   5.073   2.062
 6935SOL    HW220805   5.588   4.972   2.112
 6936SOL     OW20806   5.685   5.504   2.799
 6936SOL    HW120807   5.638   5.425   2.761
 6936SOL    HW220808   5.783   5.496   2.782
 6937SOL     OW20809   5.604   4.233   2.944
 6937SOL    HW120810   5.679   4.202   2.885
 6937SOL    HW220811   5.625   4.208   3.039
 6938SOL     OW20812   5.785   4.248   3.600
 6938SOL    HW120813   5.816   4.190   3.524
 6938SOL    HW220814   5.758   4.338   3.564
 6939SOL     OW20815   5.837   5.275   3.631
 6939SOL    HW120816   5.801   5.348   3.689
 6939SOL    HW220817   5.835   5.188   3.681
 6940SOL     OW20818   5.735   4.838   3.321
 6940SOL    HW120819   5.727   4.796   3.411
 6940SOL    HW220820   5.775   4.772   3.257
 6941SOL     OW20821   5.719   4.980   2.900
 6941SOL    HW120822   5.672   4.983   2.988
 6941SOL    HW220823   5.653   4.956   2.828
 6942SOL     OW20824   5.693   5.512   3.688
 6942SOL    HW120825   5.643   5.436   3.729
 6942SOL    HW220826   5.743   5.562   3.759
 6943SOL     OW20827   5.913   5.043   3.441
 6943SOL    HW120828   5.961   5.105   3.380
 6943SOL    HW220829   5.870   4.970   3.387
 6944SOL     OW20830   5.714   4.753   3.563
 6944SOL    HW120831   5.623   4.730   3.598
 6944SOL    HW220832   5.780   4.751   3.638
 6945SOL     OW20833   5.653   4.094   1.917
 6945SOL    HW120834   5.576   4.055   1.867
 6945SOL    HW220835   5.703   4.156   1.856
 6946SOL     OW20836   5.655   3.846   2.170
 6946SOL    HW120837   5.631   3.933   2.127
 6946SOL    HW220838   5.744   3.816   2.136
 6947SOL     OW20839   0.188   4.555   3.312
 6947SOL    HW120840   0.194   4.601   3.223
 6947SOL    HW220841   0.279   4.525   3.339
 6948SOL     OW20842   5.742   5.016   3.737
 6948SOL    HW120843   5.712   4.972   3.652
 6948SOL    HW220844   5.663   5.026   3.798
 6949SOL     OW20845   5.680   4.958   2.486
 6949SOL    HW120846   5.646   4.913   2.568
 6949SOL    HW220847   5.771   4.923   2.465
 6950SOL     OW20848   5.627   4.813   2.129
 6950SOL    HW120849   5.726   4.808   2.144
 6950SOL    HW220850   5.587   4.722   2.143
 6951SOL     OW20851   5.861   4.338   3.847
 6951SOL    HW120852   5.795   4.319   3.919
 6951SOL    HW220853   5.823   4.312   3.758
 6952SOL     OW20854   5.846   3.991   4.685
 6952SOL    HW120855   5.874   3.982   4.781
 6952SOL    HW220856   5.749   3.969   4.676
 6953SOL     OW20857   5.605   4.104   4.378
 6953SOL    HW120858   5.526   4.131   4.434
 6953SOL    HW220859   5.579   4.027   4.320
 6954SOL     OW20860   0.223   4.705   4.356
 6954SOL    HW120861   0.298   4.695   4.421
 6954SOL    HW220862   0.174   4.790   4.374
 6955SOL     OW20863   5.859   5.214   4.761
 6955SOL    HW120864   5.800   5.134   4.760
 6955SOL    HW220865   5.955   5.185   4.769
 6956SOL     OW20866   5.794   5.419   4.178
 6956SOL    HW120867   5.783   5.487   4.251
 6956SOL    HW220868   5.884   5.431   4.136
 6957SOL     OW20869   5.842   5.159   4.219
 6957SOL    HW120870   5.806   5.249   4.195
 6957SOL    HW220871   5.772   5.107   4.269
 6958SOL     OW20872   5.898   4.799   4.667
 6958SOL    HW120873   5.859   4.707   4.673
 6958SOL    HW220874   5.830   4.866   4.696
 6959SOL     OW20875   5.747   4.379   4.262
 6959SOL    HW120876   5.714   4.289   4.292
 6959SOL    HW220877   5.736   4.445   4.337
 6960SOL     OW20878   5.576   5.323   3.828
 6960SOL    HW120879   5.594   5.229   3.857
 6960SOL    HW220880   5.568   5.382   3.908
 6961SOL     OW20881   5.742   4.488   5.308
 6961SOL    HW120882   5.830   4.521   5.341
 6961SOL    HW220883   5.670   4.551   5.337
 6962SOL     OW20884   5.805   4.654   4.998
 6962SOL    HW120885   5.860   4.624   4.920
 6962SOL    HW220886   5.709   4.630   4.982
 6963SOL     OW20887   5.694   4.566   4.474
 6963SOL    HW120888   5.765   4.536   4.537
 6963SOL    HW220889   5.611   4.589   4.525
 6964SOL     OW20890   5.664   5.576   5.292
 6964SOL    HW120891   5.707   5.559   5.381
 6964SOL    HW220892   5.574   5.618   5.307
 6965SOL     OW20893   5.795   4.001   5.218
 6965SOL    HW120894   5.731   4.076   5.201
 6965SOL    HW220895   5.754   3.937   5.284
 6966SOL     OW20896   0.056   5.487   4.085
 6966SOL    HW120897   0.102   5.458   4.169
 6966SOL    HW220898   0.124   5.509   4.015
 6967SOL     OW20899   5.863   5.500   4.945
 6967SOL    HW120900   5.830   5.416   4.987
 6967SOL    HW220901   5.863   5.490   4.846
 6968SOL     OW20902   5.872   3.765   3.893
 6968SOL    HW120903   5.930   3.818   3.831
 6968SOL    HW220904   5.928   3.730   3.969
 6969SOL     OW20905   5.667   4.269   5.135
 6969SOL    HW120906   5.753   4.267   5.085
 6969SOL    HW220907   5.661   4.354   5.188
 6970SOL     OW20908   5.678   5.269   5.057
 6970SOL    HW120909   5.617   5.314   4.991
 6970SOL    HW220910   5.701   5.333   5.129
 6971SOL     OW20911   0.158   4.246   4.562
 6971SOL    HW120912   0.182   4.290   4.475
 6971SOL    HW220913   0.241   4.231   4.616
 6972SOL     OW20914   5.883   3.950   4.949
 6972SOL    HW120915   5.865   3.980   5.043
 6972SOL    HW220916   5.866   3.852   4.942
 6973SOL     OW20917   5.636   5.003   5.010
 6973SOL    HW120918   5.678   4.943   5.079
 6973SOL    HW220919   5.661   5.098   5.030
 6974SOL     OW20920   5.818   3.775   4.332
 6974SOL    HW120921   5.873   3.858   4.320
 6974SOL    HW220922   5.841   3.733   4.420
 6975SOL     OW20923   5.875   4.522   4.713
 6975SOL    HW120924   5.947   4.534   4.646
 6975SOL    HW220925   5.884   4.432   4.756
 6976SOL     OW20926   5.565   5.069   3.940
 6976SOL    HW120927   5.467   5.078   3.923
 6976SOL    HW220928   5.586   4.975   3.967
 6977SOL     OW20929   5.690   5.507   4.665
 6977SOL    HW120930   5.643   5.430   4.623
 6977SOL    HW220931   5.786   5.506   4.638
 6978SOL     OW20932   5.606   4.238   4.798
 6978SOL    HW120933   5.682   4.205   4.742
 6978SOL    HW220934   5.623   4.215   4.894
 6979SOL     OW20935   5.791   4.254   5.446
 6979SOL    HW120936   5.807   4.185   5.376
 6979SOL    HW220937   5.773   4.342   5.403
 6980SOL     OW20938   5.842   5.283   5.504
 6980SOL    HW120939   5.787   5.340   5.565
 6980SOL    HW220940   5.838   5.188   5.534
 6981SOL     OW20941   5.710   4.833   5.199
 6981SOL    HW120942   5.714   4.806   5.295
 6981SOL    HW220943   5.756   4.764   5.143
 6982SOL     OW20944   5.715   4.979   4.760
 6982SOL    HW120945   5.675   4.986   4.851
 6982SOL    HW220946   5.644   4.953   4.694
 6983SOL     OW20947   5.734   5.537   5.559
 6983SOL    HW120948   5.658   5.474   5.575
 6983SOL    HW220949   5.785   5.551   5.644
 6984SOL     OW20950   5.905   5.061   5.281
 6984SOL    HW120951   5.968   5.134   5.255
 6984SOL    HW220952   5.897   4.995   5.206
 6985SOL     OW20953   5.683   4.754   5.456
 6985SOL    HW120954   5.589   4.734   5.484
 6985SOL    HW220955   5.742   4.759   5.537
 6986SOL     OW20956   5.658   4.088   3.780
 6986SOL    HW120957   5.576   4.054   3.734
 6986SOL    HW220958   5.705   4.154   3.721
 6987SOL     OW20959   5.655   3.848   4.027
 6987SOL    HW120960   5.631   3.936   3.986
 6987SOL    HW220961   5.739   3.813   3.986
 6988SOL     OW20962   0.189   4.563   5.167
 6988SOL    HW120963   0.196   4.609   5.079
 6988SOL    HW220964   0.280   4.532   5.196
 6989SOL     OW20965   5.778   5.025   5.593
 6989SOL    HW120966   5.747   4.996   5.502
 6989SOL    HW220967   5.700   5.024   5.656
 6990SOL     OW20968   5.684   4.968   4.358
 6990SOL    HW120969   5.642   4.927   4.439
 6990SOL    HW220970   5.774   4.928   4.344
 6991SOL     OW20971   5.626   4.817   3.981
 6991SOL    HW120972   5.723   4.815   4.005
 6991SOL    HW220973   5.585   4.727   3.998
 6992SOL     OW20974   5.865   4.331   5.698
 6992SOL    HW120975   5.787   4.375   5.743
 6992SOL    HW220976   5.838   4.304   5.605
 6993SOL     OW20977   5.799   5.480   0.028
 6993SOL    HW120978   5.823   5.547   0.098
 6993SOL    HW220979   5.876   5.417   0.015
 6994SOL     OW20980   5.568   5.353   5.682
 6994SOL    HW120981   5.580   5.254   5.687
 6994SOL    HW220982   5.552   5.390   5.774
 6995SOL     OW20983   0.086   5.519   5.936
 6995SOL    HW120984   0.103   5.436   5.989
 6995SOL    HW220985   0.166   5.539   5.879
 6996SOL     OW20986   5.884   3.750   5.761
 6996SOL    HW120987   5.933   3.812   5.699
 6996SOL    HW220988   5.943   3.726   5.838
 6997SOL     OW20989   5.885   3.783   0.202
 6997SOL    HW120990   5.933   3.870   0.209
 6997SOL    HW220991   5.940   3.711   0.244
 6998SOL     OW20992   5.571   5.021   5.765
 6998SOL    HW120993   5.484   5.041   5.719
 6998SOL    HW220994   5.573   4.926   5.794
 6999SOL     OW20995   5.663   4.077   5.641
 6999SOL    HW120996   5.583   4.045   5.589
 6999SOL    HW220997   5.711   4.146   5.588
 7000SOL     OW20998   5.660   3.860   5.880
 7000SOL    HW120999   5.646   3.924   5.804
 7000SOL    HW221000   5.743   3.807   5.864
 7001SOL     OW21001   5.640   4.771   5.827
 7001SOL    HW121002   5.717   4.773   5.891
 7001SOL    HW221003   5.576   4.699   5.855
 7002SOL     OW21004   5.848   5.850   0.963
 7002SOL    HW121005   5.876   5.834   1.058
 7002SOL    HW221006   5.749   5.837   0.955
 7003SOL     OW21007   5.613   5.927   0.684
 7003SOL    HW121008   5.530   5.961   0.726
 7003SOL    HW221009   5.591   5.880   0.599
 7004SOL     OW21010   5.795   5.885   1.461
 7004SOL    HW121011   5.696   5.881   1.453
 7004SOL    HW221012   5.823   5.861   1.554
 7005SOL     OW21013   5.906   5.772   1.223
 7005SOL    HW121014   5.858   5.821   1.296
 7005SOL    HW221015   5.885   5.674   1.230
 7006SOL     OW21016   5.833   5.640   0.605
 7006SOL    HW121017   5.831   5.739   0.591
 7006SOL    HW221018   5.865   5.620   0.698
 7007SOL     OW21019   5.612   5.850   0.089
 7007SOL    HW121020   5.641   5.803   0.006
 7007SOL    HW221021   5.663   5.936   0.098
 7008SOL     OW21022   5.672   5.706   0.328
 7008SOL    HW121023   5.635   5.779   0.270
 7008SOL    HW221024   5.755   5.669   0.285
 7009SOL     OW21025   5.861   5.869   2.827
 7009SOL    HW121026   5.890   5.849   2.921
 7009SOL    HW221027   5.762   5.860   2.820
 7010SOL     OW21028   5.592   5.938   2.539
 7010SOL    HW121029   5.505   5.968   2.577
 7010SOL    HW221030   5.575   5.872   2.465
 7011SOL     OW21031   5.795   5.895   3.323
 7011SOL    HW121032   5.696   5.881   3.317
 7011SOL    HW221033   5.825   5.874   3.417
 7012SOL     OW21034   5.867   5.641   2.028
 7012SOL    HW121035   5.895   5.733   2.000
 7012SOL    HW221036   5.939   5.600   2.083
 7013SOL     OW21037   5.910   5.775   3.087
 7013SOL    HW121038   5.862   5.826   3.159
 7013SOL    HW221039   5.886   5.678   3.093
 7014SOL     OW21040   5.822   5.635   2.474
 7014SOL    HW121041   5.882   5.703   2.430
 7014SOL    HW221042   5.836   5.638   2.573
 7015SOL     OW21043   5.575   5.956   1.939
 7015SOL    HW121044   5.552   5.891   1.866
 7015SOL    HW221045   5.657   0.007   1.914
 7016SOL     OW21046   5.667   5.717   2.175
 7016SOL    HW121047   5.644   5.807   2.137
 7016SOL    HW221048   5.752   5.684   2.133
 7017SOL     OW21049   5.867   5.869   4.674
 7017SOL    HW121050   5.897   5.856   4.769
 7017SOL    HW221051   5.768   5.858   4.668
 7018SOL     OW21052   5.595   5.940   4.397
 7018SOL    HW121053   5.507   5.968   4.435
 7018SOL    HW221054   5.580   5.873   4.325
 7019SOL     OW21055   5.780   5.884   5.212
 7019SOL    HW121056   5.693   5.884   5.163
 7019SOL    HW221057   5.770   5.835   5.298
 7020SOL     OW21058   5.867   5.641   3.878
 7020SOL    HW121059   5.898   5.734   3.862
 7020SOL    HW221060   5.934   5.592   3.935
 7021SOL     OW21061   5.889   5.771   4.946
 7021SOL    HW121062   5.847   5.811   5.027
 7021SOL    HW221063   5.887   5.672   4.953
 7022SOL     OW21064   5.829   5.635   4.334
 7022SOL    HW121065   5.885   5.706   4.291
 7022SOL    HW221066   5.843   5.638   4.433
 7023SOL     OW21067   5.574   5.960   3.797
 7023SOL    HW121068   5.545   5.896   3.726
 7023SOL    HW221069   5.659   0.005   3.770
 7024SOL     OW21070   5.671   5.719   4.032
 7024SOL    HW121071   5.646   5.807   3.991
 7024SOL    HW221072   5.754   5.684   3.988
 7025SOL     OW21073   5.884   5.615   5.773
 7025SOL    HW121074   5.916   5.706   5.746
 7025SOL    HW221075   5.949   5.575   5.839
 7026SOL     OW21076   5.898   5.643   0.216
 7026SOL    HW121077   5.946   5.730   0.230
 7026SOL    HW221078   5.958   5.567   0.243
 7027SOL     OW21079   5.625   5.928   5.654
 7027SOL    HW121080   5.596   5.896   5.564
 7027SOL    HW221081   5.696   5.997   5.643
 7028SOL     OW21082   5.663   5.728   5.867
 7028SOL    HW121083   5.647   5.796   5.795
 7028SOL    HW221084   5.744   5.675   5.845
   6.00000   6.00000   6.00000
