Sucrose in water
 2646
    1ND5R   H22    1   1.078   1.241   1.405
    1ND5R   O11    2   1.100   1.306   1.334
    1ND5R   C12    3   1.235   1.352   1.347
    1ND5R   H13    4   1.308   1.278   1.310
    1ND5R   H14    5   1.243   1.440   1.282
    1ND5R    C9    6   1.274   1.387   1.491
    1ND5R    H8    7   1.273   1.296   1.551
    1ND5R    O3    8   1.411   1.435   1.504
    1ND5R    C5    9   1.436   1.572   1.468
    1ND5R    H4   10   1.426   1.580   1.360
    1ND5R    C6   11   1.341   1.673   1.533
    1ND5R    H5   12   1.359   1.770   1.485
    1ND5R    O6   13   1.370   1.682   1.673
    1ND5R   H17   14   1.466   1.703   1.673
    1ND5R    C7   15   1.195   1.632   1.508
    1ND5R    H6   16   1.136   1.695   1.575
    1ND5R    O7   17   1.158   1.655   1.370
    1ND5R   H18   18   1.056   1.667   1.370
    1ND5R    C8   19   1.174   1.485   1.556
    1ND5R    H7   20   1.074   1.452   1.530
    1ND5R    O8   21   1.185   1.478   1.698
    1ND5R   H19   22   1.274   1.519   1.724
    1ND5R    O2   23   1.567   1.600   1.512
    1ND5R    C1   24   1.685   1.564   1.440
    1ND5R   C10   25   1.689   1.638   1.305
    1ND5R    H9   26   1.697   1.744   1.327
    1ND5R   H10   27   1.596   1.622   1.251
    1ND5R    O9   28   1.800   1.601   1.219
    1ND5R   H20   29   1.799   1.504   1.205
    1ND5R    O1   30   1.689   1.425   1.416
    1ND5R    C4   31   1.752   1.360   1.532
    1ND5R    H3   32   1.824   1.290   1.491
    1ND5R   C11   33   1.650   1.281   1.616
    1ND5R   H11   34   1.587   1.349   1.674
    1ND5R   H12   35   1.705   1.219   1.687
    1ND5R   O10   36   1.569   1.193   1.537
    1ND5R   H21   37   1.518   1.259   1.485
    1ND5R    C3   38   1.826   1.469   1.613
    1ND5R    H2   39   1.775   1.486   1.708
    1ND5R    O5   40   1.966   1.442   1.635
    1ND5R   H16   41   1.984   1.374   1.710
    1ND5R    C2   42   1.810   1.595   1.525
    1ND5R    H1   43   1.894   1.595   1.455
    1ND5R    O4   44   1.807   1.720   1.595
    1ND5R   H15   45   1.880   1.724   1.661
    2SOL     OW   46   0.237   0.658   0.107
    2SOL    HW1   47   0.167   0.611   0.160
    2SOL    HW2   48   0.256   0.607   0.023
    3SOL     OW   49   0.204   0.272   1.002
    3SOL    HW1   50   0.244   0.248   1.090
    3SOL    HW2   51   0.105   0.258   1.005
    4SOL     OW   52   0.009   0.392   0.660
    4SOL    HW1   53   2.922   0.433   0.688
    4SOL    HW2   54   2.990   0.316   0.597
    5SOL     OW   55   0.567   1.285   1.175
    5SOL    HW1   56   0.475   1.276   1.139
    5SOL    HW2   57   0.580   1.376   1.213
    6SOL     OW   58   1.556   1.510   0.705
    6SOL    HW1   59   1.511   1.491   0.793
    6SOL    HW2   60   1.486   1.519   0.634
    7SOL     OW   61   1.132   0.702   0.700
    7SOL    HW1   62   1.184   0.786   0.684
    7SOL    HW2   63   1.080   0.710   0.785
    8SOL     OW   64   1.764   0.593   0.231
    8SOL    HW1   65   1.746   0.584   0.133
    8SOL    HW2   66   1.725   0.515   0.280
    9SOL     OW   67   0.754   1.145   1.034
    9SOL    HW1   68   0.683   1.177   1.096
    9SOL    HW2   69   0.796   1.223   0.988
   10SOL     OW   70   0.861   0.781   1.818
   10SOL    HW1   71   0.854   0.851   1.889
   10SOL    HW2   72   0.889   0.824   1.731
   11SOL     OW   73   0.684   1.005   0.654
   11SOL    HW1   74   0.754   0.991   0.724
   11SOL    HW2   75   0.608   1.057   0.693
   12SOL     OW   76   0.705   1.154   1.811
   12SOL    HW1   77   0.759   1.234   1.839
   12SOL    HW2   78   0.617   1.184   1.774
   13SOL     OW   79   0.327   1.432   1.069
   13SOL    HW1   80   0.260   1.375   1.022
   13SOL    HW2   81   0.384   1.479   1.002
   14SOL     OW   82   0.451   0.402   1.492
   14SOL    HW1   83   0.530   0.340   1.494
   14SOL    HW2   84   0.367   0.349   1.505
   15SOL     OW   85   1.612   0.458   0.738
   15SOL    HW1   86   1.534   0.479   0.680
   15SOL    HW2   87   1.629   0.534   0.800
   16SOL     OW   88   0.220   1.717   0.479
   16SOL    HW1   89   0.239   1.801   0.530
   16SOL    HW2   90   0.292   1.702   0.412
   17SOL     OW   91   0.250   1.453   0.532
   17SOL    HW1   92   0.215   1.546   0.525
   17SOL    HW2   93   0.189   1.398   0.588
   18SOL     OW   94   0.263   1.083   0.900
   18SOL    HW1   95   0.258   0.989   0.932
   18SOL    HW2   96   0.196   1.139   0.950
   19SOL     OW   97   0.614   1.794   1.431
   19SOL    HW1   98   0.529   1.767   1.475
   19SOL    HW2   99   0.637   1.888   1.455
   20SOL     OW  100   0.588   0.975   0.153
   20SOL    HW1  101   0.597   1.047   0.085
   20SOL    HW2  102   0.632   1.004   0.239
   21SOL     OW  103   1.552   0.146   1.465
   21SOL    HW1  104   1.585   0.221   1.408
   21SOL    HW2  105   1.626   0.113   1.523
   22SOL     OW  106   0.119   0.631   0.572
   22SOL    HW1  107   0.081   0.546   0.608
   22SOL    HW2  108   0.117   0.701   0.643
   23SOL     OW  109   1.846   1.759   0.335
   23SOL    HW1  110   1.903   1.721   0.407
   23SOL    HW2  111   1.868   1.856   0.322
   24SOL     OW  112   0.019   1.598   0.115
   24SOL    HW1  113   0.022   1.499   0.129
   24SOL    HW2  114   2.990   1.642   0.200
   25SOL     OW  115   1.692   0.922   0.641
   25SOL    HW1  116   1.778   0.874   0.624
   25SOL    HW2  117   1.667   0.975   0.560
   26SOL     OW  118   1.648   1.108   0.433
   26SOL    HW1  119   1.736   1.110   0.386
   26SOL    HW2  120   1.651   1.172   0.510
   27SOL     OW  121   0.130   0.747   1.590
   27SOL    HW1  122   0.229   0.754   1.591
   27SOL    HW2  123   0.090   0.839   1.591
   28SOL     OW  124   0.609   1.384   0.735
   28SOL    HW1  125   0.562   1.297   0.747
   28SOL    HW2  126   0.595   1.416   0.641
   29SOL     OW  127   0.818   0.016   0.512
   29SOL    HW1  128   0.854   0.108   0.497
   29SOL    HW2  129   0.719   0.017   0.499
   30SOL     OW  130   0.189   0.956   1.274
   30SOL    HW1  131   0.277   0.914   1.253
   30SOL    HW2  132   0.118   0.915   1.216
   31SOL     OW  133   1.506   1.007   0.214
   31SOL    HW1  134   1.436   0.945   0.250
   31SOL    HW2  135   1.564   1.040   0.289
   32SOL     OW  136   0.332   0.253   1.800
   32SOL    HW1  137   0.390   0.331   1.822
   32SOL    HW2  138   0.244   0.263   1.846
   33SOL     OW  139   1.441   1.423   0.941
   33SOL    HW1  140   1.411   1.427   1.036
   33SOL    HW2  141   1.442   1.327   0.911
   34SOL     OW  142   1.659   1.733   0.577
   34SOL    HW1  143   1.635   1.709   0.483
   34SOL    HW2  144   1.632   1.659   0.638
   35SOL     OW  145   0.592   0.720   0.270
   35SOL    HW1  146   0.602   0.805   0.218
   35SOL    HW2  147   0.525   0.733   0.343
   36SOL     OW  148   1.285   0.341   0.930
   36SOL    HW1  149   1.188   0.317   0.935
   36SOL    HW2  150   1.336   0.292   1.001
   37SOL     OW  151   1.586   1.667   0.309
   37SOL    HW1  152   1.679   1.702   0.304
   37SOL    HW2  153   1.554   1.645   0.216
   38SOL     OW  154   0.792   0.614   1.455
   38SOL    HW1  155   0.764   0.594   1.549
   38SOL    HW2  156   0.749   0.549   1.392
   39SOL     OW  157   1.396   0.477   1.678
   39SOL    HW1  158   1.393   0.525   1.766
   39SOL    HW2  159   1.455   0.397   1.686
   40SOL     OW  160   0.958   0.887   1.578
   40SOL    HW1  161   1.015   0.813   1.544
   40SOL    HW2  162   0.905   0.926   1.503
   41SOL     OW  163   0.997   0.417   1.226
   41SOL    HW1  164   0.920   0.438   1.286
   41SOL    HW2  165   0.964   0.367   1.146
   42SOL     OW  166   1.047   0.705   0.425
   42SOL    HW1  167   1.068   0.697   0.522
   42SOL    HW2  168   0.964   0.654   0.404
   43SOL     OW  169   0.105   0.819   0.763
   43SOL    HW1  170   0.187   0.813   0.821
   43SOL    HW2  171   0.034   0.870   0.810
   44SOL     OW  172   0.142   1.844   1.575
   44SOL    HW1  173   0.128   1.817   1.671
   44SOL    HW2  174   0.054   1.870   1.536
   45SOL     OW  175   0.926   0.339   0.221
   45SOL    HW1  176   0.939   0.403   0.145
   45SOL    HW2  177   0.879   0.257   0.187
   46SOL     OW  178   1.710   0.579   1.826
   46SOL    HW1  179   1.670   0.658   1.779
   46SOL    HW2  180   1.737   0.510   1.758
   47SOL     OW  181   1.376   1.142   0.539
   47SOL    HW1  182   1.459   1.125   0.486
   47SOL    HW2  183   1.319   1.209   0.490
   48SOL     OW  184   0.514   0.201   0.916
   48SOL    HW1  185   0.537   0.211   1.013
   48SOL    HW2  186   0.551   0.277   0.864
   49SOL     OW  187   1.004   1.447   0.471
   49SOL    HW1  188   0.963   1.522   0.419
   49SOL    HW2  189   0.989   1.462   0.569
   50SOL     OW  190   0.356   1.808   0.857
   50SOL    HW1  191   0.402   1.719   0.869
   50SOL    HW2  192   0.421   1.881   0.875
   51SOL     OW  193   1.797   1.061   0.868
   51SOL    HW1  194   1.745   1.041   0.785
   51SOL    HW2  195   1.735   1.063   0.946
   52SOL     OW  196   0.321   0.947   0.232
   52SOL    HW1  197   0.417   0.958   0.209
   52SOL    HW2  198   0.290   0.856   0.203
   53SOL     OW  199   1.477   0.742   0.727
   53SOL    HW1  200   1.464   0.694   0.813
   53SOL    HW2  201   1.557   0.802   0.734
   54SOL     OW  202   0.464   1.259   1.731
   54SOL    HW1  203   0.436   1.267   1.635
   54SOL    HW2  204   0.383   1.266   1.790
   55SOL     OW  205   1.110   1.774   0.224
   55SOL    HW1  206   1.046   1.727   0.285
   55SOL    HW2  207   1.146   1.708   0.157
   56SOL     OW  208   0.203   0.299   1.498
   56SOL    HW1  209   0.116   0.347   1.483
   56SOL    HW2  210   0.186   0.216   1.552
   57SOL     OW  211   1.624   1.361   0.085
   57SOL    HW1  212   1.600   1.458   0.077
   57SOL    HW2  213   1.541   1.305   0.079
   58SOL     OW  214   0.467   1.723   0.333
   58SOL    HW1  215   0.498   1.796   0.393
   58SOL    HW2  216   0.536   1.707   0.262
   59SOL     OW  217   1.410   0.108   0.433
   59SOL    HW1  218   1.390   0.080   0.339
   59SOL    HW2  219   1.508   0.127   0.442
   60SOL     OW  220   0.266   1.798   1.231
   60SOL    HW1  221   0.305   1.723   1.283
   60SOL    HW2  222   0.222   1.762   1.149
   61SOL     OW  223   0.936   1.699   0.900
   61SOL    HW1  224   1.021   1.653   0.923
   61SOL    HW2  225   0.889   1.649   0.827
   62SOL     OW  226   0.392   0.687   0.475
   62SOL    HW1  227   0.426   0.595   0.492
   62SOL    HW2  228   0.295   0.692   0.500
   63SOL     OW  229   1.537   0.251   1.739
   63SOL    HW1  230   1.538   0.258   1.839
   63SOL    HW2  231   1.483   0.172   1.712
   64SOL     OW  232   0.609   0.107   0.101
   64SOL    HW1  233   0.708   0.108   0.118
   64SOL    HW2  234   0.591   0.146   0.011
   65SOL     OW  235   0.765   0.271   1.751
   65SOL    HW1  236   0.845   0.211   1.761
   65SOL    HW2  237   0.718   0.278   1.838
   66SOL     OW  238   0.879   1.514   1.196
   66SOL    HW1  239   0.861   1.485   1.102
   66SOL    HW2  240   0.932   1.442   1.243
   67SOL     OW  241   1.345   0.589   1.433
   67SOL    HW1  242   1.373   0.553   1.523
   67SOL    HW2  243   1.376   0.684   1.424
   68SOL     OW  244   0.815   1.398   0.935
   68SOL    HW1  245   0.905   1.386   0.892
   68SOL    HW2  246   0.743   1.395   0.866
   69SOL     OW  247   0.926   0.509   0.901
   69SOL    HW1  248   0.902   0.504   0.804
   69SOL    HW2  249   0.961   0.420   0.932
   70SOL     OW  250   0.538   0.047   0.497
   70SOL    HW1  251   0.450   0.038   0.543
   70SOL    HW2  252   0.537   0.128   0.438
   71SOL     OW  253   1.410   1.207   0.052
   71SOL    HW1  254   1.433   1.128   0.109
   71SOL    HW2  255   1.318   1.238   0.076
   72SOL     OW  256   0.298   0.081   0.200
   72SOL    HW1  257   0.380   0.139   0.200
   72SOL    HW2  258   0.325   2.985   0.200
   73SOL     OW  259   0.950   0.253   0.474
   73SOL    HW1  260   0.921   0.291   0.387
   73SOL    HW2  261   1.049   0.261   0.484
   74SOL     OW  262   1.081   0.679   1.459
   74SOL    HW1  263   1.003   0.616   1.465
   74SOL    HW2  264   1.165   0.626   1.452
   75SOL     OW  265   1.221   1.570   0.794
   75SOL    HW1  266   1.238   1.641   0.725
   75SOL    HW2  267   1.299   1.564   0.856
   76SOL     OW  268   0.466   1.148   0.736
   76SOL    HW1  269   0.394   1.128   0.803
   76SOL    HW2  270   0.429   1.136   0.644
   77SOL     OW  271   1.269   1.794   0.604
   77SOL    HW1  272   1.318   1.857   0.543
   77SOL    HW2  273   1.199   1.845   0.655
   78SOL     OW  274   1.042   0.498   0.034
   78SOL    HW1  275   0.999   0.588   0.021
   78SOL    HW2  276   1.115   0.506   0.102
   79SOL     OW  277   0.084   0.567   1.390
   79SOL    HW1  278   0.176   0.559   1.351
   79SOL    HW2  279   0.085   0.633   1.465
   80SOL     OW  280   0.580   0.211   1.181
   80SOL    HW1  281   0.624   0.167   1.259
   80SOL    HW2  282   0.482   0.221   1.200
   81SOL     OW  283   0.875   0.471   0.638
   81SOL    HW1  284   0.820   0.525   0.574
   81SOL    HW2  285   0.888   0.379   0.601
   82SOL     OW  286   0.995   0.056   0.764
   82SOL    HW1  287   0.959   0.069   0.672
   82SOL    HW2  288   0.973   2.964   0.796
   83SOL     OW  289   1.440   1.163   0.858
   83SOL    HW1  290   1.366   1.096   0.864
   83SOL    HW2  291   1.466   1.176   0.762
   84SOL     OW  292   1.469   0.601   0.980
   84SOL    HW1  293   1.412   0.519   0.982
   84SOL    HW2  294   1.532   0.600   1.057
   85SOL     OW  295   1.846   0.816   0.381
   85SOL    HW1  296   1.903   0.761   0.442
   85SOL    HW2  297   1.816   0.761   0.303
   86SOL     OW  298   0.487   1.407   0.153
   86SOL    HW1  299   0.421   1.374   0.221
   86SOL    HW2  300   0.441   1.417   0.064
   87SOL     OW  301   1.669   1.267   0.648
   87SOL    HW1  302   1.769   1.267   0.659
   87SOL    HW2  303   1.633   1.358   0.669
   88SOL     OW  304   1.412   0.575   0.101
   88SOL    HW1  305   1.337   0.569   0.168
   88SOL    HW2  306   1.463   0.489   0.100
   89SOL     OW  307   0.527   0.261   0.322
   89SOL    HW1  308   0.572   0.207   0.251
   89SOL    HW2  309   0.500   0.350   0.284
   90SOL     OW  310   1.125   1.189   1.094
   90SOL    HW1  311   1.092   1.238   1.175
   90SOL    HW2  312   1.091   1.235   1.012
   91SOL     OW  313   1.631   1.097   1.079
   91SOL    HW1  314   1.631   1.165   1.152
   91SOL    HW2  315   1.548   1.108   1.024
   92SOL     OW  316   0.901   0.112   1.384
   92SOL    HW1  317   0.939   0.089   1.295
   92SOL    HW2  318   0.967   0.168   1.435
   93SOL     OW  319   0.983   1.109   1.726
   93SOL    HW1  320   0.888   1.136   1.744
   93SOL    HW2  321   0.985   1.030   1.666
   94SOL     OW  322   0.706   1.061   0.380
   94SOL    HW1  323   0.688   1.049   0.478
   94SOL    HW2  324   0.790   1.013   0.356
   95SOL     OW  325   0.421   0.811   1.250
   95SOL    HW1  326   0.493   0.826   1.318
   95SOL    HW2  327   0.381   0.721   1.264
   96SOL     OW  328   1.271   0.389   1.262
   96SOL    HW1  329   1.304   0.463   1.321
   96SOL    HW2  330   1.172   0.399   1.247
   97SOL     OW  331   0.068   1.571   1.309
   97SOL    HW1  332   0.021   1.653   1.339
   97SOL    HW2  333   0.161   1.571   1.346
   98SOL     OW  334   0.360   1.113   0.487
   98SOL    HW1  335   0.347   1.191   0.426
   98SOL    HW2  336   0.355   1.028   0.435
   99SOL     OW  337   0.552   0.546   0.863
   99SOL    HW1  338   0.570   0.602   0.782
   99SOL    HW2  339   0.619   0.569   0.934
  100SOL     OW  340   1.247   1.349   0.398
  100SOL    HW1  341   1.307   1.424   0.425
  100SOL    HW2  342   1.153   1.371   0.427
  101SOL     OW  343   1.582   0.626   0.478
  101SOL    HW1  344   1.534   0.681   0.547
  101SOL    HW2  345   1.631   0.686   0.416
  102SOL     OW  346   0.352   1.527   1.320
  102SOL    HW1  347   0.328   1.486   1.232
  102SOL    HW2  348   0.451   1.540   1.325
  103SOL     OW  349   0.412   0.740   1.600
  103SOL    HW1  350   0.469   0.795   1.540
  103SOL    HW2  351   0.458   0.654   1.622
  104SOL     OW  352   1.602   0.782   1.679
  104SOL    HW1  353   1.510   0.822   1.676
  104SOL    HW2  354   1.659   0.823   1.607
  105SOL     OW  355   1.006   0.113   1.762
  105SOL    HW1  356   1.050   0.200   1.739
  105SOL    HW2  357   1.024   0.047   1.689
  106SOL     OW  358   0.502   0.052   1.751
  106SOL    HW1  359   0.475   2.985   1.682
  106SOL    HW2  360   0.431   0.121   1.760
  107SOL     OW  361   0.583   0.870   1.033
  107SOL    HW1  362   0.616   0.965   1.025
  107SOL    HW2  363   0.523   0.863   1.112
  108SOL     OW  364   1.362   0.859   1.029
  108SOL    HW1  365   1.272   0.857   0.985
  108SOL    HW2  366   1.401   0.767   1.029
  109SOL     OW  367   1.203   0.530   0.273
  109SOL    HW1  368   1.215   0.445   0.324
  109SOL    HW2  369   1.158   0.598   0.331
  110SOL     OW  370   0.324   0.208   1.247
  110SOL    HW1  371   0.291   0.257   1.327
  110SOL    HW2  372   0.275   0.121   1.238
  111SOL     OW  373   0.036   1.305   1.280
  111SOL    HW1  374   0.070   1.253   1.359
  111SOL    HW2  375   0.046   1.403   1.298
  112SOL     OW  376   0.726   0.632   1.059
  112SOL    HW1  377   0.802   0.610   0.997
  112SOL    HW2  378   0.693   0.724   1.038
  113SOL     OW  379   1.731   0.961   1.849
  113SOL    HW1  380   1.685   0.898   1.785
  113SOL    HW2  381   1.672   0.976   1.928
  114SOL     OW  382   0.309   0.073   0.645
  114SOL    HW1  383   0.306   0.165   0.683
  114SOL    HW2  384   0.283   0.006   0.715
  115SOL     OW  385   1.621   0.377   0.366
  115SOL    HW1  386   1.650   0.305   0.429
  115SOL    HW2  387   1.591   0.457   0.419
  116SOL     OW  388   1.025   0.757   0.962
  116SOL    HW1  389   1.026   0.779   1.059
  116SOL    HW2  390   0.996   0.662   0.950
  117SOL     OW  391   0.945   1.582   1.719
  117SOL    HW1  392   0.926   1.612   1.625
  117SOL    HW2  393   1.022   1.518   1.718
  118SOL     OW  394   0.356   0.915   1.806
  118SOL    HW1  395   0.437   0.938   1.860
  118SOL    HW2  396   0.381   0.849   1.735
  119SOL     OW  397   1.499   0.301   0.128
  119SOL    HW1  398   1.457   0.211   0.139
  119SOL    HW2  399   1.558   0.320   0.206
  120SOL     OW  400   1.293   0.822   0.035
  120SOL    HW1  401   1.336   0.733   0.051
  120SOL    HW2  402   1.321   0.856   2.946
  121SOL     OW  403   1.066   1.336   0.851
  121SOL    HW1  404   1.067   1.257   0.789
  121SOL    HW2  405   1.128   1.406   0.817
  122SOL     OW  406   0.313   0.807   0.946
  122SOL    HW1  407   0.410   0.832   0.942
  122SOL    HW2  408   0.303   0.716   0.985
  123SOL     OW  409   0.334   0.513   1.016
  123SOL    HW1  410   0.290   0.426   0.995
  123SOL    HW2  411   0.412   0.527   0.955
  124SOL     OW  412   1.140   0.384   1.703
  124SOL    HW1  413   1.091   0.440   1.769
  124SOL    HW2  414   1.233   0.420   1.691
  125SOL     OW  415   1.098   0.255   1.477
  125SOL    HW1  416   1.118   0.310   1.558
  125SOL    HW2  417   1.183   0.238   1.427
  126SOL     OW  418   0.009   1.313   0.169
  126SOL    HW1  419   2.914   1.333   0.145
  126SOL    HW2  420   0.011   1.235   0.232
  127SOL     OW  421   0.103   1.803   0.969
  127SOL    HW1  422   0.055   1.737   0.912
  127SOL    HW2  423   0.193   1.822   0.930
  128SOL     OW  424   0.497   1.574   0.903
  128SOL    HW1  425   0.566   1.640   0.932
  128SOL    HW2  426   0.539   1.504   0.845
  129SOL     OW  427   0.987   0.796   1.228
  129SOL    HW1  428   1.043   0.768   1.306
  129SOL    HW2  429   0.895   0.758   1.237
  130SOL     OW  430   0.045   0.556   1.107
  130SOL    HW1  431   0.139   0.535   1.077
  130SOL    HW2  432   0.039   0.543   1.206
  131SOL     OW  433   0.193   0.519   1.721
  131SOL    HW1  434   0.267   0.486   1.663
  131SOL    HW2  435   0.154   0.602   1.682
  132SOL     OW  436   1.381   0.946   1.663
  132SOL    HW1  437   1.407   1.041   1.677
  132SOL    HW2  438   1.381   0.926   1.565
  133SOL     OW  439   0.819   0.578   0.347
  133SOL    HW1  440   0.827   0.494   0.294
  133SOL    HW2  441   0.735   0.626   0.323
  134SOL     OW  442   1.645   0.604   1.188
  134SOL    HW1  443   1.624   0.544   1.265
  134SOL    HW2  444   1.735   0.581   1.151
  135SOL     OW  445   0.284   1.559   1.748
  135SOL    HW1  446   0.223   1.625   1.793
  135SOL    HW2  447   0.255   1.466   1.770
  136SOL     OW  448   0.694   0.458   1.262
  136SOL    HW1  449   0.646   0.375   1.232
  136SOL    HW2  450   0.698   0.523   1.186
  137SOL     OW  451   0.905   1.687   1.452
  137SOL    HW1  452   0.850   1.645   1.380
  137SOL    HW2  453   0.898   1.786   1.447
  138SOL     OW  454   0.449   0.495   0.203
  138SOL    HW1  455   0.518   0.565   0.221
  138SOL    HW2  456   0.360   0.540   0.189
  139SOL     OW  457   0.160   1.140   1.465
  139SOL    HW1  458   0.144   1.095   1.553
  139SOL    HW2  459   0.170   1.071   1.394
  140SOL     OW  460   1.330   1.047   1.220
  140SOL    HW1  461   1.354   0.977   1.152
  140SOL    HW2  462   1.252   1.100   1.186
  141SOL     OW  463   1.306   0.851   0.309
  141SOL    HW1  464   1.227   0.823   0.364
  141SOL    HW2  465   1.285   0.838   0.212
  142SOL     OW  466   1.237   1.740   1.096
  142SOL    HW1  467   1.328   1.751   1.057
  142SOL    HW2  468   1.240   1.676   1.172
  143SOL     OW  469   0.093   1.249   1.026
  143SOL    HW1  470   0.076   1.262   1.124
  143SOL    HW2  471   0.009   1.267   0.975
  144SOL     OW  472   0.665   1.670   1.731
  144SOL    HW1  473   0.608   1.752   1.731
  144SOL    HW2  474   0.733   1.676   1.658
  145SOL     OW  475   0.876   0.082   0.147
  145SOL    HW1  476   0.932   0.067   0.066
  145SOL    HW2  477   0.909   0.025   0.222
  146SOL     OW  478   1.711   0.140   0.501
  146SOL    HW1  479   1.785   0.141   0.434
  146SOL    HW2  480   1.724   0.063   0.563
  147SOL     OW  481   1.393   1.570   0.483
  147SOL    HW1  482   1.458   1.600   0.413
  147SOL    HW2  483   1.340   1.649   0.516
  148SOL     OW  484   0.126   1.793   1.845
  148SOL    HW1  485   0.078   1.721   1.894
  148SOL    HW2  486   0.186   1.842   1.908
  149SOL     OW  487   1.280   0.925   0.666
  149SOL    HW1  488   1.354   0.859   0.679
  149SOL    HW2  489   1.313   1.004   0.614
  150SOL     OW  490   0.812   1.272   1.427
  150SOL    HW1  491   0.793   1.314   1.516
  150SOL    HW2  492   0.737   1.291   1.364
  151SOL     OW  493   0.669   1.608   0.161
  151SOL    HW1  494   0.677   1.633   0.064
  151SOL    HW2  495   0.612   1.527   0.170
  152SOL     OW  496   1.848   0.156   0.964
  152SOL    HW1  497   1.856   0.068   0.917
  152SOL    HW2  498   1.762   0.200   0.937
  153SOL     OW  499   0.267   0.332   0.741
  153SOL    HW1  500   0.175   0.364   0.722
  153SOL    HW2  501   0.273   0.301   0.835
  154SOL     OW  502   1.207   1.602   0.036
  154SOL    HW1  503   1.199   1.509   0.070
  154SOL    HW2  504   1.154   1.611   2.951
  155SOL     OW  505   0.825   1.008   1.373
  155SOL    HW1  506   0.870   0.996   1.285
  155SOL    HW2  507   0.823   1.106   1.396
  156SOL     OW  508   0.924   0.929   0.304
  156SOL    HW1  509   0.989   0.967   0.239
  156SOL    HW2  510   0.968   0.857   0.358
  157SOL     OW  511   1.486   1.602   0.051
  157SOL    HW1  512   1.386   1.609   0.057
  157SOL    HW2  513   1.516   1.642   2.964
  158SOL     OW  514   0.372   1.303   1.487
  158SOL    HW1  515   0.359   1.387   1.435
  158SOL    HW2  516   0.293   1.244   1.475
  159SOL     OW  517   1.050   1.105   0.709
  159SOL    HW1  518   0.976   1.054   0.753
  159SOL    HW2  519   1.117   1.040   0.671
  160SOL     OW  520   1.018   0.242   0.966
  160SOL    HW1  521   1.010   0.192   0.880
  160SOL    HW2  522   1.022   0.178   1.042
  161SOL     OW  523   0.602   1.490   0.483
  161SOL    HW1  524   0.646   1.435   0.412
  161SOL    HW2  525   0.535   1.551   0.442
  162SOL     OW  526   1.725   0.391   1.378
  162SOL    HW1  527   1.797   0.460   1.376
  162SOL    HW2  528   1.748   0.316   1.316
  163SOL     OW  529   0.265   1.335   0.297
  163SOL    HW1  530   0.174   1.337   0.255
  163SOL    HW2  531   0.263   1.383   0.384
  164SOL     OW  532   0.126   1.016   1.710
  164SOL    HW1  533   0.045   0.977   1.754
  164SOL    HW2  534   0.209   0.978   1.753
  165SOL     OW  535   0.667   0.212   1.493
  165SOL    HW1  536   0.751   0.180   1.449
  165SOL    HW2  537   0.685   0.229   1.590
  166SOL     OW  538   0.069   0.317   0.054
  166SOL    HW1  539   2.972   0.331   0.032
  166SOL    HW2  540   0.122   0.397   0.026
  167SOL     OW  541   1.429   0.862   1.401
  167SOL    HW1  542   1.377   0.926   1.345
  167SOL    HW2  543   1.525   0.861   1.370
  168SOL     OW  544   0.035   0.183   0.288
  168SOL    HW1  545   0.036   0.244   0.208
  168SOL    HW2  546   0.127   0.145   0.302
  169SOL     OW  547   1.183   1.348   0.127
  169SOL    HW1  548   1.085   1.338   0.111
  169SOL    HW2  549   1.203   1.338   0.224
  170SOL     OW  550   0.620   0.832   1.432
  170SOL    HW1  551   0.676   0.914   1.418
  170SOL    HW2  552   0.679   0.752   1.443
  171SOL     OW  553   1.491   1.773   0.982
  171SOL    HW1  554   1.502   1.832   0.903
  171SOL    HW2  555   1.581   1.747   1.017
  172SOL     OW  556   0.717   0.565   1.708
  172SOL    HW1  557   0.757   0.637   1.766
  172SOL    HW2  558   0.756   0.476   1.734
  173SOL     OW  559   0.387   1.736   1.563
  173SOL    HW1  560   0.298   1.780   1.549
  173SOL    HW2  561   0.373   1.651   1.615
  174SOL     OW  562   1.673   0.879   1.255
  174SOL    HW1  563   1.663   0.787   1.218
  174SOL    HW2  564   1.660   0.946   1.183
  175SOL     OW  565   1.228   0.316   0.457
  175SOL    HW1  566   1.291   0.238   0.452
  175SOL    HW2  567   1.250   0.371   0.537
  176SOL     OW  568   0.592   0.740   0.663
  176SOL    HW1  569   0.633   0.831   0.655
  176SOL    HW2  570   0.516   0.733   0.599
  177SOL     OW  571   1.761   0.353   1.646
  177SOL    HW1  572   1.745   0.377   1.550
  177SOL    HW2  573   1.677   0.317   1.686
  178SOL     OW  574   1.756   0.928   1.509
  178SOL    HW1  575   1.749   1.025   1.532
  178SOL    HW2  576   1.733   0.915   1.413
  179SOL     OW  577   0.908   1.389   0.062
  179SOL    HW1  578   0.835   1.382   0.130
  179SOL    HW2  579   0.868   1.412   2.973
  180SOL     OW  580   0.661   1.793   0.950
  180SOL    HW1  581   0.634   1.886   0.923
  180SOL    HW2  582   0.759   1.781   0.935
  181SOL     OW  583   0.867   0.966   0.857
  181SOL    HW1  584   0.920   0.890   0.896
  181SOL    HW2  585   0.829   1.022   0.931
  182SOL     OW  586   1.099   1.019   0.099
  182SOL    HW1  587   1.060   1.062   0.018
  182SOL    HW2  588   1.169   0.953   0.072
  183SOL     OW  589   1.850   1.558   0.857
  183SOL    HW1  590   1.779   1.546   0.788
  183SOL    HW2  591   1.869   1.471   0.901
  184SOL     OW  592   0.222   1.302   1.853
  184SOL    HW1  593   0.177   1.217   1.825
  184SOL    HW2  594   0.214   1.313   1.952
  185SOL     OW  595   0.130   1.249   0.661
  185SOL    HW1  596   0.078   1.185   0.717
  185SOL    HW2  597   0.183   1.199   0.592
  186SOL     OW  598   0.678   1.407   1.627
  186SOL    HW1  599   0.599   1.351   1.653
  186SOL    HW2  600   0.670   1.497   1.670
  187SOL     OW  601   1.791   0.173   1.232
  187SOL    HW1  602   1.842   0.102   1.280
  187SOL    HW2  603   1.821   0.178   1.137
  188SOL     OW  604   0.461   0.430   0.547
  188SOL    HW1  605   0.457   0.364   0.472
  188SOL    HW2  606   0.404   0.398   0.623
  189SOL     OW  607   0.333   0.552   1.289
  189SOL    HW1  608   0.392   0.499   1.349
  189SOL    HW2  609   0.351   0.526   1.194
  190SOL     OW  610   0.825   1.580   0.680
  190SOL    HW1  611   0.822   1.630   0.594
  190SOL    HW2  612   0.745   1.520   0.687
  191SOL     OW  613   1.427   0.218   1.127
  191SOL    HW1  614   1.451   0.138   1.182
  191SOL    HW2  615   1.375   0.282   1.183
  192SOL     OW  616   1.010   0.028   1.147
  192SOL    HW1  617   0.924   2.998   1.105
  192SOL    HW2  618   1.080   2.959   1.134
  193SOL     OW  619   0.767   1.327   0.314
  193SOL    HW1  620   0.732   1.235   0.331
  193SOL    HW2  621   0.856   1.338   0.358
  194SOL     OW  622   0.624   1.559   1.286
  194SOL    HW1  623   0.622   1.646   1.336
  194SOL    HW2  624   0.712   1.549   1.241
  195SOL     OW  625   1.357   0.056   0.167
  195SOL    HW1  626   1.420   2.980   0.149
  195SOL    HW2  627   1.263   0.026   0.151
  196SOL     OW  628   1.295   0.462   0.683
  196SOL    HW1  629   1.239   0.544   0.688
  196SOL    HW2  630   1.294   0.416   0.772
  197SOL     OW  631   1.603   0.232   0.887
  197SOL    HW1  632   1.524   0.229   0.948
  197SOL    HW2  633   1.596   0.312   0.828
  198SOL     OW  634   0.070   1.091   0.340
  198SOL    HW1  635   0.152   1.048   0.303
  198SOL    HW2  636   2.994   1.026   0.338
  199SOL     OW  637   0.880   1.655   0.345
  199SOL    HW1  638   0.809   1.629   0.281
  199SOL    HW2  639   0.849   1.733   0.400
  200SOL     OW  640   0.240   0.643   1.975
  200SOL    HW1  641   0.169   0.606   2.034
  200SOL    HW2  642   0.228   0.607   1.882
  201SOL     OW  643   0.234   0.250   2.850
  201SOL    HW1  644   0.251   0.230   2.947
  201SOL    HW2  645   0.136   0.241   2.832
  202SOL     OW  646   0.008   0.391   2.524
  202SOL    HW1  647   2.920   0.430   2.549
  202SOL    HW2  648   2.994   0.315   2.460
  203SOL     OW  649   1.556   1.509   2.568
  203SOL    HW1  650   1.511   1.490   2.655
  203SOL    HW2  651   1.488   1.519   2.496
  204SOL     OW  652   1.133   0.701   2.562
  204SOL    HW1  653   1.186   0.784   2.544
  204SOL    HW2  654   1.082   0.712   2.647
  205SOL     OW  655   1.763   0.606   2.090
  205SOL    HW1  656   1.744   0.600   1.992
  205SOL    HW2  657   1.730   0.523   2.136
  206SOL     OW  658   0.749   1.146   2.893
  206SOL    HW1  659   0.679   1.185   2.952
  206SOL    HW2  660   0.800   1.220   2.848
  207SOL     OW  661   0.683   1.007   2.512
  207SOL    HW1  662   0.754   0.991   2.581
  207SOL    HW2  663   0.607   1.058   2.553
  208SOL     OW  664   0.332   1.451   2.930
  208SOL    HW1  665   0.275   1.382   2.886
  208SOL    HW2  666   0.391   1.494   2.862
  209SOL     OW  667   1.616   0.458   2.595
  209SOL    HW1  668   1.538   0.477   2.534
  209SOL    HW2  669   1.615   0.522   2.672
  210SOL     OW  670   0.222   1.713   2.347
  210SOL    HW1  671   0.241   1.799   2.393
  210SOL    HW2  672   0.282   1.703   2.267
  211SOL     OW  673   0.253   1.448   2.388
  211SOL    HW1  674   0.222   1.543   2.386
  211SOL    HW2  675   0.191   1.394   2.446
  212SOL     OW  676   0.241   1.085   2.753
  212SOL    HW1  677   0.259   0.995   2.793
  212SOL    HW2  678   0.191   1.141   2.818
  213SOL     OW  679   0.587   0.983   1.996
  213SOL    HW1  680   0.631   1.035   1.922
  213SOL    HW2  681   0.629   1.009   2.083
  214SOL     OW  682   0.124   0.627   2.436
  214SOL    HW1  683   0.083   0.543   2.472
  214SOL    HW2  684   0.121   0.699   2.506
  215SOL     OW  685   1.844   1.761   2.198
  215SOL    HW1  686   1.905   1.727   2.270
  215SOL    HW2  687   1.867   1.856   2.176
  216SOL     OW  688   0.027   1.596   1.999
  216SOL    HW1  689   0.021   1.497   2.006
  216SOL    HW2  690   2.974   1.638   2.074
  217SOL     OW  691   1.690   0.920   2.501
  217SOL    HW1  692   1.778   0.874   2.485
  217SOL    HW2  693   1.666   0.973   2.420
  218SOL     OW  694   1.647   1.108   2.293
  218SOL    HW1  695   1.734   1.112   2.245
  218SOL    HW2  696   1.649   1.172   2.370
  219SOL     OW  697   0.607   1.382   2.593
  219SOL    HW1  698   0.559   1.295   2.605
  219SOL    HW2  699   0.594   1.414   2.499
  220SOL     OW  700   0.819   0.015   2.372
  220SOL    HW1  701   0.857   0.105   2.350
  220SOL    HW2  702   0.720   0.017   2.359
  221SOL     OW  703   1.534   0.991   2.062
  221SOL    HW1  704   1.459   0.931   2.087
  221SOL    HW2  705   1.575   1.031   2.144
  222SOL     OW  706   1.431   1.422   2.799
  222SOL    HW1  707   1.420   1.430   2.898
  222SOL    HW2  708   1.439   1.326   2.773
  223SOL     OW  709   1.657   1.735   2.441
  223SOL    HW1  710   1.634   1.709   2.347
  223SOL    HW2  711   1.633   1.660   2.503
  224SOL     OW  712   0.597   0.724   2.128
  224SOL    HW1  713   0.606   0.806   2.070
  224SOL    HW2  714   0.528   0.740   2.198
  225SOL     OW  715   1.294   0.337   2.808
  225SOL    HW1  716   1.195   0.323   2.797
  225SOL    HW2  717   1.323   0.302   2.897
  226SOL     OW  718   1.587   1.670   2.178
  226SOL    HW1  719   1.681   1.704   2.174
  226SOL    HW2  720   1.555   1.651   2.085
  227SOL     OW  721   1.047   0.698   2.290
  227SOL    HW1  722   1.066   0.693   2.388
  227SOL    HW2  723   0.962   0.649   2.270
  228SOL     OW  724   0.107   0.817   2.625
  228SOL    HW1  725   0.189   0.813   2.682
  228SOL    HW2  726   0.040   0.879   2.666
  229SOL     OW  727   0.872   0.357   2.049
  229SOL    HW1  728   0.931   0.420   1.998
  229SOL    HW2  729   0.904   0.263   2.038
  230SOL     OW  730   1.377   1.143   2.402
  230SOL    HW1  731   1.459   1.124   2.348
  230SOL    HW2  732   1.320   1.210   2.353
  231SOL     OW  733   0.558   0.203   2.837
  231SOL    HW1  734   0.502   0.276   2.876
  231SOL    HW2  735   0.581   0.226   2.742
  232SOL     OW  736   1.004   1.445   2.334
  232SOL    HW1  737   0.963   1.521   2.283
  232SOL    HW2  738   0.991   1.459   2.432
  233SOL     OW  739   0.356   1.803   2.715
  233SOL    HW1  740   0.402   1.716   2.729
  233SOL    HW2  741   0.418   1.878   2.739
  234SOL     OW  742   1.805   1.060   2.719
  234SOL    HW1  743   1.747   1.039   2.640
  234SOL    HW2  744   1.748   1.062   2.801
  235SOL     OW  745   0.316   0.948   2.107
  235SOL    HW1  746   0.403   0.979   2.069
  235SOL    HW2  747   0.293   0.859   2.068
  236SOL     OW  748   1.476   0.747   2.587
  236SOL    HW1  749   1.471   0.689   2.669
  236SOL    HW2  750   1.560   0.801   2.590
  237SOL     OW  751   1.113   1.787   2.104
  237SOL    HW1  752   1.037   1.746   2.155
  237SOL    HW2  753   1.148   1.721   2.038
  238SOL     OW  754   1.631   1.375   1.940
  238SOL    HW1  755   1.585   1.463   1.953
  238SOL    HW2  756   1.562   1.304   1.921
  239SOL     OW  757   0.467   1.738   2.181
  239SOL    HW1  758   0.505   1.798   2.251
  239SOL    HW2  759   0.540   1.705   2.121
  240SOL     OW  760   1.410   0.111   2.293
  240SOL    HW1  761   1.391   0.076   2.202
  240SOL    HW2  762   1.508   0.130   2.302
  241SOL     OW  763   0.264   1.799   0.098
  241SOL    HW1  764   0.307   1.729   0.156
  241SOL    HW2  765   0.200   1.755   0.035
  242SOL     OW  766   0.942   1.691   2.755
  242SOL    HW1  767   1.028   1.640   2.761
  242SOL    HW2  768   0.884   1.649   2.685
  243SOL     OW  769   0.393   0.688   2.339
  243SOL    HW1  770   0.428   0.596   2.353
  243SOL    HW2  771   0.295   0.691   2.362
  244SOL     OW  772   0.626   0.120   1.975
  244SOL    HW1  773   0.720   0.084   1.976
  244SOL    HW2  774   0.584   0.101   1.886
  245SOL     OW  775   0.807   1.395   2.789
  245SOL    HW1  776   0.899   1.388   2.750
  245SOL    HW2  777   0.739   1.391   2.716
  246SOL     OW  778   0.920   0.517   2.757
  246SOL    HW1  779   0.900   0.499   2.661
  246SOL    HW2  780   0.953   0.433   2.800
  247SOL     OW  781   0.542   0.060   2.367
  247SOL    HW1  782   0.452   0.042   2.405
  247SOL    HW2  783   0.536   0.133   2.299
  248SOL     OW  784   1.432   1.196   1.900
  248SOL    HW1  785   1.459   1.116   1.955
  248SOL    HW2  786   1.340   1.225   1.926
  249SOL     OW  787   0.290   0.031   2.054
  249SOL    HW1  788   0.337   0.112   2.020
  249SOL    HW2  789   0.357   2.967   2.090
  250SOL     OW  790   0.942   0.255   2.323
  250SOL    HW1  791   0.906   0.303   2.243
  250SOL    HW2  792   1.041   0.266   2.327
  251SOL     OW  793   1.219   1.585   2.673
  251SOL    HW1  794   1.242   1.644   2.596
  251SOL    HW2  795   1.303   1.557   2.720
  252SOL     OW  796   0.461   1.145   2.600
  252SOL    HW1  797   0.388   1.128   2.666
  252SOL    HW2  798   0.426   1.131   2.508
  253SOL     OW  799   1.270   1.794   2.467
  253SOL    HW1  800   1.318   1.857   2.405
  253SOL    HW2  801   1.199   1.845   2.516
  254SOL     OW  802   1.021   0.548   1.888
  254SOL    HW1  803   0.978   0.636   1.864
  254SOL    HW2  804   1.091   0.563   1.957
  255SOL     OW  805   0.871   0.467   2.497
  255SOL    HW1  806   0.821   0.523   2.430
  255SOL    HW2  807   0.890   0.377   2.458
  256SOL     OW  808   0.996   0.050   2.622
  256SOL    HW1  809   0.961   0.062   2.529
  256SOL    HW2  810   0.974   2.958   2.654
  257SOL     OW  811   1.440   1.161   2.711
  257SOL    HW1  812   1.361   1.100   2.710
  257SOL    HW2  813   1.471   1.177   2.618
  258SOL     OW  814   1.487   0.584   2.818
  258SOL    HW1  815   1.419   0.511   2.821
  258SOL    HW2  816   1.510   0.613   2.911
  259SOL     OW  817   1.849   0.815   2.242
  259SOL    HW1  818   1.907   0.764   2.306
  259SOL    HW2  819   1.814   0.754   2.172
  260SOL     OW  820   0.490   1.413   2.025
  260SOL    HW1  821   0.409   1.385   2.076
  260SOL    HW2  822   0.474   1.400   1.927
  261SOL     OW  823   1.670   1.267   2.509
  261SOL    HW1  824   1.769   1.268   2.520
  261SOL    HW2  825   1.633   1.357   2.530
  262SOL     OW  826   1.391   0.573   1.934
  262SOL    HW1  827   1.328   0.554   2.009
  262SOL    HW2  828   1.482   0.540   1.958
  263SOL     OW  829   0.527   0.265   2.181
  263SOL    HW1  830   0.567   0.207   2.110
  263SOL    HW2  831   0.505   0.354   2.143
  264SOL     OW  832   1.650   1.106   2.932
  264SOL    HW1  833   1.656   1.176   0.003
  264SOL    HW2  834   1.562   1.111   2.886
  265SOL     OW  835   0.709   1.056   2.234
  265SOL    HW1  836   0.693   1.044   2.332
  265SOL    HW2  837   0.789   1.003   2.207
  266SOL     OW  838   0.351   1.110   2.352
  266SOL    HW1  839   0.356   1.189   2.291
  266SOL    HW2  840   0.355   1.026   2.299
  267SOL     OW  841   0.544   0.551   2.731
  267SOL    HW1  842   0.564   0.601   2.647
  267SOL    HW2  843   0.617   0.567   2.798
  268SOL     OW  844   1.247   1.348   2.263
  268SOL    HW1  845   1.307   1.424   2.289
  268SOL    HW2  846   1.153   1.370   2.291
  269SOL     OW  847   1.582   0.626   2.340
  269SOL    HW1  848   1.533   0.682   2.406
  269SOL    HW2  849   1.627   0.686   2.273
  270SOL     OW  850   0.579   0.872   2.880
  270SOL    HW1  851   0.622   0.957   2.849
  270SOL    HW2  852   0.550   0.882   2.975
  271SOL     OW  853   1.207   0.534   2.133
  271SOL    HW1  854   1.215   0.448   2.183
  271SOL    HW2  855   1.160   0.601   2.190
  272SOL     OW  856   0.731   0.641   2.915
  272SOL    HW1  857   0.801   0.611   2.851
  272SOL    HW2  858   0.693   0.728   2.884
  273SOL     OW  859   0.309   0.072   2.507
  273SOL    HW1  860   0.304   0.164   2.546
  273SOL    HW2  861   0.281   0.005   2.577
  274SOL     OW  862   1.613   0.377   2.231
  274SOL    HW1  863   1.652   0.308   2.292
  274SOL    HW2  864   1.590   0.459   2.284
  275SOL     OW  865   1.018   0.760   2.817
  275SOL    HW1  866   1.022   0.773   2.916
  275SOL    HW2  867   0.989   0.666   2.796
  276SOL     OW  868   1.529   0.271   1.999
  276SOL    HW1  869   1.461   0.202   2.024
  276SOL    HW2  870   1.565   0.313   2.082
  277SOL     OW  871   1.295   0.828   1.894
  277SOL    HW1  872   1.336   0.737   1.901
  277SOL    HW2  873   1.324   0.871   1.809
  278SOL     OW  874   1.052   1.349   2.693
  278SOL    HW1  875   1.063   1.262   2.646
  278SOL    HW2  876   1.131   1.408   2.675
  279SOL     OW  877   0.313   0.811   2.809
  279SOL    HW1  878   0.411   0.833   2.808
  279SOL    HW2  879   0.300   0.718   2.844
  280SOL     OW  880   0.319   0.519   2.874
  280SOL    HW1  881   0.284   0.428   2.852
  280SOL    HW2  882   0.402   0.536   2.820
  281SOL     OW  883   2.993   1.318   2.043
  281SOL    HW1  884   2.899   1.326   2.011
  281SOL    HW2  885   0.004   1.233   2.094
  282SOL     OW  886   0.097   1.817   2.810
  282SOL    HW1  887   0.054   1.737   2.769
  282SOL    HW2  888   0.192   1.823   2.781
  283SOL     OW  889   0.504   1.576   2.760
  283SOL    HW1  890   0.574   1.642   2.787
  283SOL    HW2  891   0.545   1.505   2.703
  284SOL     OW  892   0.976   0.752   0.084
  284SOL    HW1  893   1.033   0.754   0.166
  284SOL    HW2  894   0.881   0.773   0.109
  285SOL     OW  895   0.814   0.571   2.216
  285SOL    HW1  896   0.822   0.492   2.154
  285SOL    HW2  897   0.738   0.629   2.187
  286SOL     OW  898   0.695   0.438   0.087
  286SOL    HW1  899   0.597   0.429   0.102
  286SOL    HW2  900   0.713   0.518   0.029
  287SOL     OW  901   0.465   0.497   2.052
  287SOL    HW1  902   0.532   0.569   2.071
  287SOL    HW2  903   0.375   0.538   2.038
  288SOL     OW  904   1.309   0.856   2.167
  288SOL    HW1  905   1.230   0.828   2.222
  288SOL    HW2  906   1.287   0.843   2.070
  289SOL     OW  907   1.738   1.766   2.971
  289SOL    HW1  908   1.814   1.793   2.912
  289SOL    HW2  909   1.766   1.688   0.027
  290SOL     OW  910   0.073   1.251   2.903
  290SOL    HW1  911   0.046   1.275   2.996
  290SOL    HW2  912   0.003   1.282   2.838
  291SOL     OW  913   1.718   0.144   2.361
  291SOL    HW1  914   1.783   0.141   2.285
  291SOL    HW2  915   1.730   0.063   2.419
  292SOL     OW  916   1.392   1.570   2.347
  292SOL    HW1  917   1.458   1.599   2.278
  292SOL    HW2  918   1.339   1.649   2.378
  293SOL     OW  919   1.280   0.926   2.528
  293SOL    HW1  920   1.354   0.860   2.542
  293SOL    HW2  921   1.313   1.004   2.475
  294SOL     OW  922   0.671   1.615   2.017
  294SOL    HW1  923   0.681   1.632   1.919
  294SOL    HW2  924   0.615   1.533   2.031
  295SOL     OW  925   1.852   0.161   2.812
  295SOL    HW1  926   1.855   0.069   2.772
  295SOL    HW2  927   1.763   0.203   2.792
  296SOL     OW  928   0.270   0.333   2.598
  296SOL    HW1  929   0.178   0.367   2.583
  296SOL    HW2  930   0.279   0.300   2.692
  297SOL     OW  931   1.209   1.615   1.926
  297SOL    HW1  932   1.207   1.520   1.956
  297SOL    HW2  933   1.146   1.627   1.849
  298SOL     OW  934   0.918   0.910   2.150
  298SOL    HW1  935   0.980   0.945   2.080
  298SOL    HW2  936   0.962   0.837   2.200
  299SOL     OW  937   1.500   1.622   1.924
  299SOL    HW1  938   1.401   1.620   1.910
  299SOL    HW2  939   1.546   1.613   1.836
  300SOL     OW  940   1.053   1.103   2.574
  300SOL    HW1  941   0.976   1.052   2.613
  300SOL    HW2  942   1.118   1.039   2.533
  301SOL     OW  943   1.022   0.248   2.809
  301SOL    HW1  944   1.012   0.178   2.738
  301SOL    HW2  945   1.050   0.204   2.895
  302SOL     OW  946   0.602   1.488   2.343
  302SOL    HW1  947   0.648   1.434   2.272
  302SOL    HW2  948   0.530   1.543   2.302
  303SOL     OW  949   0.251   1.347   2.144
  303SOL    HW1  950   0.153   1.341   2.123
  303SOL    HW2  951   0.263   1.387   2.234
  304SOL     OW  952   0.098   0.327   1.911
  304SOL    HW1  953   0.011   0.292   1.877
  304SOL    HW2  954   0.118   0.415   1.868
  305SOL     OW  955   0.016   0.215   2.141
  305SOL    HW1  956   0.060   0.267   2.068
  305SOL    HW2  957   0.072   0.136   2.166
  306SOL     OW  958   1.191   1.352   1.993
  306SOL    HW1  959   1.103   1.311   1.969
  306SOL    HW2  960   1.209   1.337   2.091
  307SOL     OW  961   1.507   1.782   2.832
  307SOL    HW1  962   1.515   1.834   2.747
  307SOL    HW2  963   1.593   1.788   2.883
  308SOL     OW  964   1.714   0.847   0.060
  308SOL    HW1  965   1.636   0.809   0.110
  308SOL    HW2  966   1.695   0.943   0.037
  309SOL     OW  967   1.225   0.316   2.319
  309SOL    HW1  968   1.289   0.239   2.314
  309SOL    HW2  969   1.246   0.372   2.399
  310SOL     OW  970   0.590   0.741   2.526
  310SOL    HW1  971   0.633   0.831   2.515
  310SOL    HW2  972   0.516   0.731   2.460
  311SOL     OW  973   0.855   1.368   1.895
  311SOL    HW1  974   0.818   1.388   1.985
  311SOL    HW2  975   0.870   1.454   1.845
  312SOL     OW  976   0.665   1.795   2.822
  312SOL    HW1  977   0.637   1.886   2.790
  312SOL    HW2  978   0.762   1.782   2.804
  313SOL     OW  979   0.863   0.966   2.717
  313SOL    HW1  980   0.916   0.890   2.754
  313SOL    HW2  981   0.830   1.023   2.792
  314SOL     OW  982   1.079   0.988   1.949
  314SOL    HW1  983   1.052   1.043   1.870
  314SOL    HW2  984   1.159   0.932   1.925
  315SOL     OW  985   1.853   1.558   2.714
  315SOL    HW1  986   1.776   1.545   2.651
  315SOL    HW2  987   1.865   1.475   2.769
  316SOL     OW  988   0.131   1.246   2.518
  316SOL    HW1  989   0.091   1.184   2.586
  316SOL    HW2  990   0.193   1.196   2.458
  317SOL     OW  991   1.807   0.185   0.080
  317SOL    HW1  992   1.835   0.101   0.127
  317SOL    HW2  993   1.828   0.177   2.982
  318SOL     OW  994   0.460   0.432   2.404
  318SOL    HW1  995   0.459   0.365   2.330
  318SOL    HW2  996   0.409   0.397   2.482
  319SOL     OW  997   0.818   1.586   2.539
  319SOL    HW1  998   0.820   1.628   2.449
  319SOL    HW2  999   0.741   1.522   2.544
  320SOL     OW 1000   0.771   1.332   2.175
  320SOL    HW1 1001   0.736   1.238   2.180
  320SOL    HW2 1002   0.859   1.337   2.223
  321SOL     OW 1003   1.347   0.046   2.029
  321SOL    HW1 1004   1.419   2.983   1.998
  321SOL    HW2 1005   1.260   2.997   2.034
  322SOL     OW 1006   1.295   0.458   2.549
  322SOL    HW1 1007   1.240   0.541   2.553
  322SOL    HW2 1008   1.295   0.413   2.638
  323SOL     OW 1009   1.599   0.237   2.749
  323SOL    HW1 1010   1.506   0.225   2.784
  323SOL    HW2 1011   1.602   0.315   2.686
  324SOL     OW 1012   0.065   1.080   2.159
  324SOL    HW1 1013   0.158   1.043   2.161
  324SOL    HW2 1014   0.002   1.015   2.201
  325SOL     OW 1015   0.878   1.654   2.210
  325SOL    HW1 1016   0.808   1.630   2.143
  325SOL    HW2 1017   0.849   1.733   2.262
  326SOL     OW 1018   0.239   2.512   0.099
  326SOL    HW1 1019   0.167   2.470   0.154
  326SOL    HW2 1020   0.254   2.459   0.016
  327SOL     OW 1021   0.211   2.137   0.991
  327SOL    HW1 1022   0.246   2.106   1.080
  327SOL    HW2 1023   0.119   2.100   0.977
  328SOL     OW 1024   0.016   2.250   0.644
  328SOL    HW1 1025   2.928   2.290   0.669
  328SOL    HW2 1026   0.002   2.163   0.598
  329SOL     OW 1027   1.134   2.570   0.700
  329SOL    HW1 1028   1.184   2.656   0.689
  329SOL    HW2 1029   1.079   2.574   0.783
  330SOL     OW 1030   1.759   2.455   0.225
  330SOL    HW1 1031   1.749   2.437   0.128
  330SOL    HW2 1032   1.724   2.377   0.277
  331SOL     OW 1033   0.760   0.012   1.029
  331SOL    HW1 1034   0.674   0.040   1.071
  331SOL    HW2 1035   0.786   0.078   0.959
  332SOL     OW 1036   0.867   2.637   1.822
  332SOL    HW1 1037   0.845   2.699   1.897
  332SOL    HW2 1038   0.892   2.690   1.740
  333SOL     OW 1039   0.652   2.851   0.713
  333SOL    HW1 1040   0.751   2.853   0.728
  333SOL    HW2 1041   0.626   2.931   0.659
  334SOL     OW 1042   0.474   2.270   1.486
  334SOL    HW1 1043   0.549   2.205   1.488
  334SOL    HW2 1044   0.387   2.223   1.503
  335SOL     OW 1045   1.614   2.311   0.740
  335SOL    HW1 1046   1.534   2.333   0.685
  335SOL    HW2 1047   1.636   2.388   0.800
  336SOL     OW 1048   0.211   0.316   0.461
  336SOL    HW1 1049   0.228   0.394   0.522
  336SOL    HW2 1050   0.204   0.232   0.515
  337SOL     OW 1051   0.233   2.941   0.877
  337SOL    HW1 1052   0.259   2.855   0.921
  337SOL    HW2 1053   0.204   0.007   0.946
  338SOL     OW 1054   0.617   2.832   0.151
  338SOL    HW1 1055   0.595   2.927   0.128
  338SOL    HW2 1056   0.685   2.830   0.225
  339SOL     OW 1057   1.568   1.982   1.466
  339SOL    HW1 1058   1.596   2.055   1.404
  339SOL    HW2 1059   1.594   2.006   1.560
  340SOL     OW 1060   0.114   2.499   0.566
  340SOL    HW1 1061   0.092   2.407   0.599
  340SOL    HW2 1062   0.114   2.563   0.643
  341SOL     OW 1063   1.702   2.806   0.626
  341SOL    HW1 1064   1.783   2.748   0.637
  341SOL    HW2 1065   1.685   2.822   0.529
  342SOL     OW 1066   0.129   2.609   1.589
  342SOL    HW1 1067   0.229   2.616   1.591
  342SOL    HW2 1068   0.089   2.698   1.610
  343SOL     OW 1069   0.658   0.243   0.686
  343SOL    HW1 1070   0.593   0.174   0.717
  343SOL    HW2 1071   0.611   0.307   0.624
  344SOL     OW 1072   1.306   0.051   1.443
  344SOL    HW1 1073   1.324   2.987   1.369
  344SOL    HW2 1074   1.390   0.101   1.466
  345SOL     OW 1075   0.813   1.865   0.506
  345SOL    HW1 1076   0.858   1.953   0.490
  345SOL    HW2 1077   0.714   1.879   0.515
  346SOL     OW 1078   0.191   2.835   1.258
  346SOL    HW1 1079   0.279   2.787   1.251
  346SOL    HW2 1080   0.117   2.774   1.230
  347SOL     OW 1081   1.522   2.845   0.208
  347SOL    HW1 1082   1.450   2.796   0.257
  347SOL    HW2 1083   1.597   2.864   0.271
  348SOL     OW 1084   0.338   2.112   1.812
  348SOL    HW1 1085   0.391   2.195   1.828
  348SOL    HW2 1086   0.246   2.123   1.851
  349SOL     OW 1087   0.594   2.583   0.273
  349SOL    HW1 1088   0.597   2.665   0.216
  349SOL    HW2 1089   0.522   2.594   0.343
  350SOL     OW 1090   1.279   2.209   0.932
  350SOL    HW1 1091   1.184   2.177   0.938
  350SOL    HW2 1092   1.335   2.158   0.997
  351SOL     OW 1093   0.792   2.475   1.454
  351SOL    HW1 1094   0.765   2.455   1.548
  351SOL    HW2 1095   0.749   2.409   1.392
  352SOL     OW 1096   1.394   2.333   1.679
  352SOL    HW1 1097   1.391   2.381   1.766
  352SOL    HW2 1098   1.461   2.260   1.683
  353SOL     OW 1099   0.959   2.757   1.590
  353SOL    HW1 1100   1.015   2.683   1.553
  353SOL    HW2 1101   0.902   2.795   1.518
  354SOL     OW 1102   0.993   2.274   1.234
  354SOL    HW1 1103   0.909   2.299   1.282
  354SOL    HW2 1104   0.971   2.221   1.152
  355SOL     OW 1105   1.049   2.566   0.423
  355SOL    HW1 1106   1.067   2.561   0.522
  355SOL    HW2 1107   0.965   2.517   0.402
  356SOL     OW 1108   0.105   2.671   0.769
  356SOL    HW1 1109   0.185   2.674   0.828
  356SOL    HW2 1110   0.042   2.745   0.794
  357SOL     OW 1111   0.926   2.194   0.223
  357SOL    HW1 1112   0.939   2.260   0.149
  357SOL    HW2 1113   0.897   2.106   0.185
  358SOL     OW 1114   1.708   2.437   1.825
  358SOL    HW1 1115   1.670   2.517   1.778
  358SOL    HW2 1116   1.736   2.369   1.758
  359SOL     OW 1117   0.545   2.043   0.895
  359SOL    HW1 1118   0.551   2.070   0.991
  359SOL    HW2 1119   0.550   2.124   0.837
  360SOL     OW 1120   1.795   2.905   0.868
  360SOL    HW1 1121   1.742   2.888   0.785
  360SOL    HW2 1122   1.733   2.915   0.945
  361SOL     OW 1123   1.484   2.601   0.726
  361SOL    HW1 1124   1.462   2.548   0.807
  361SOL    HW2 1125   1.560   2.664   0.747
  362SOL     OW 1126   0.233   2.166   1.508
  362SOL    HW1 1127   0.152   2.215   1.475
  362SOL    HW2 1128   0.204   2.083   1.555
  363SOL     OW 1129   1.403   1.967   0.429
  363SOL    HW1 1130   1.391   1.945   0.332
  363SOL    HW2 1131   1.501   1.979   0.448
  364SOL     OW 1132   0.389   2.551   0.475
  364SOL    HW1 1133   0.414   2.455   0.485
  364SOL    HW2 1134   0.292   2.562   0.496
  365SOL     OW 1135   1.542   2.090   1.731
  365SOL    HW1 1136   1.545   2.109   1.829
  365SOL    HW2 1137   1.466   2.027   1.712
  366SOL     OW 1138   0.627   1.983   0.119
  366SOL    HW1 1139   0.725   1.962   0.121
  366SOL    HW2 1140   0.585   1.933   0.042
  367SOL     OW 1141   0.764   2.140   1.754
  367SOL    HW1 1142   0.844   2.080   1.757
  367SOL    HW2 1143   0.709   2.125   1.836
  368SOL     OW 1144   1.341   2.451   1.435
  368SOL    HW1 1145   1.371   2.413   1.523
  368SOL    HW2 1146   1.378   2.543   1.423
  369SOL     OW 1147   0.927   2.370   0.900
  369SOL    HW1 1148   0.901   2.362   0.804
  369SOL    HW2 1149   0.961   2.282   0.933
  370SOL     OW 1150   0.545   1.924   0.503
  370SOL    HW1 1151   0.462   1.924   0.558
  370SOL    HW2 1152   0.545   2.004   0.443
  371SOL     OW 1153   0.946   2.104   0.474
  371SOL    HW1 1154   0.916   2.143   0.386
  371SOL    HW2 1155   1.045   2.116   0.483
  372SOL     OW 1156   1.078   2.546   1.458
  372SOL    HW1 1157   1.001   2.484   1.466
  372SOL    HW2 1158   1.163   2.493   1.453
  373SOL     OW 1159   1.049   2.357   0.031
  373SOL    HW1 1160   0.999   2.442   0.016
  373SOL    HW2 1161   1.114   2.368   0.106
  374SOL     OW 1162   0.091   2.416   1.401
  374SOL    HW1 1163   0.178   2.419   1.352
  374SOL    HW2 1164   0.087   2.489   1.468
  375SOL     OW 1165   0.561   2.087   1.166
  375SOL    HW1 1166   0.604   2.003   1.199
  375SOL    HW2 1167   0.465   2.087   1.194
  376SOL     OW 1168   0.870   2.322   0.638
  376SOL    HW1 1169   0.817   2.383   0.577
  376SOL    HW2 1170   0.893   2.238   0.589
  377SOL     OW 1171   1.015   1.913   0.751
  377SOL    HW1 1172   0.954   1.913   0.672
  377SOL    HW2 1173   0.993   1.836   0.810
  378SOL     OW 1174   1.429   2.991   0.874
  378SOL    HW1 1175   1.360   2.931   0.833
  378SOL    HW2 1176   1.453   0.063   0.809
  379SOL     OW 1177   1.468   2.463   0.981
  379SOL    HW1 1178   1.413   2.379   0.981
  379SOL    HW2 1179   1.532   2.462   1.058
  380SOL     OW 1180   1.830   2.663   0.389
  380SOL    HW1 1181   1.895   2.616   0.450
  380SOL    HW2 1182   1.812   2.606   0.309
  381SOL     OW 1183   1.411   2.436   0.102
  381SOL    HW1 1184   1.336   2.428   0.168
  381SOL    HW2 1185   1.464   2.351   0.102
  382SOL     OW 1186   0.522   2.126   0.323
  382SOL    HW1 1187   0.561   2.070   0.250
  382SOL    HW2 1188   0.498   2.216   0.287
  383SOL     OW 1189   1.782   0.078   1.589
  383SOL    HW1 1190   1.873   0.042   1.569
  383SOL    HW2 1191   1.790   0.168   1.633
  384SOL     OW 1192   1.626   2.955   1.076
  384SOL    HW1 1193   1.648   0.041   1.122
  384SOL    HW2 1194   1.548   2.970   1.015
  385SOL     OW 1195   0.921   1.958   1.397
  385SOL    HW1 1196   0.940   1.937   1.301
  385SOL    HW2 1197   1.000   2.002   1.439
  386SOL     OW 1198   0.416   2.678   1.254
  386SOL    HW1 1199   0.491   2.688   1.320
  386SOL    HW2 1200   0.377   2.586   1.261
  387SOL     OW 1201   1.265   2.242   1.274
  387SOL    HW1 1202   1.302   2.320   1.324
  387SOL    HW2 1203   1.170   2.260   1.248
  388SOL     OW 1204   0.555   2.403   0.863
  388SOL    HW1 1205   0.570   2.459   0.782
  388SOL    HW2 1206   0.621   2.429   0.933
  389SOL     OW 1207   1.578   2.487   0.476
  389SOL    HW1 1208   1.536   2.540   0.549
  389SOL    HW2 1209   1.639   2.545   0.422
  390SOL     OW 1210   0.412   2.598   1.602
  390SOL    HW1 1211   0.471   2.651   1.541
  390SOL    HW2 1212   0.456   2.511   1.624
  391SOL     OW 1213   1.599   2.639   1.679
  391SOL    HW1 1214   1.507   2.678   1.676
  391SOL    HW2 1215   1.655   2.683   1.609
  392SOL     OW 1216   0.992   1.992   1.758
  392SOL    HW1 1217   1.051   2.066   1.727
  392SOL    HW2 1218   1.033   1.904   1.733
  393SOL     OW 1219   0.497   1.904   1.744
  393SOL    HW1 1220   0.455   1.843   1.676
  393SOL    HW2 1221   0.436   1.981   1.761
  394SOL     OW 1222   0.592   2.727   1.040
  394SOL    HW1 1223   0.599   2.820   1.005
  394SOL    HW2 1224   0.523   2.723   1.112
  395SOL     OW 1225   1.349   2.712   1.032
  395SOL    HW1 1226   1.275   2.710   0.965
  395SOL    HW2 1227   1.397   2.624   1.030
  396SOL     OW 1228   1.202   2.393   0.273
  396SOL    HW1 1229   1.212   2.305   0.319
  396SOL    HW2 1230   1.154   2.457   0.332
  397SOL     OW 1231   0.300   2.065   1.243
  397SOL    HW1 1232   0.282   2.100   1.334
  397SOL    HW2 1233   0.286   1.966   1.242
  398SOL     OW 1234   0.054   0.169   1.269
  398SOL    HW1 1235   0.084   0.131   1.357
  398SOL    HW2 1236   0.004   0.254   1.286
  399SOL     OW 1237   0.731   2.493   1.061
  399SOL    HW1 1238   0.802   2.472   0.994
  399SOL    HW2 1239   0.693   2.584   1.042
  400SOL     OW 1240   1.733   2.819   1.843
  400SOL    HW1 1241   1.687   2.756   1.781
  400SOL    HW2 1242   1.677   2.832   1.925
  401SOL     OW 1243   0.301   1.930   0.625
  401SOL    HW1 1244   0.284   2.026   0.649
  401SOL    HW2 1245   0.312   1.876   0.709
  402SOL     OW 1246   1.622   2.237   0.368
  402SOL    HW1 1247   1.647   2.165   0.433
  402SOL    HW2 1248   1.591   2.318   0.419
  403SOL     OW 1249   1.026   2.614   0.967
  403SOL    HW1 1250   1.027   2.634   1.065
  403SOL    HW2 1251   0.997   2.520   0.952
  404SOL     OW 1252   0.358   2.786   1.794
  404SOL    HW1 1253   0.419   2.786   1.873
  404SOL    HW2 1254   0.382   2.711   1.733
  405SOL     OW 1255   1.503   2.165   0.129
  405SOL    HW1 1256   1.460   2.076   0.138
  405SOL    HW2 1257   1.559   2.184   0.209
  406SOL     OW 1258   1.296   2.682   0.039
  406SOL    HW1 1259   1.337   2.592   0.053
  406SOL    HW2 1260   1.323   2.718   2.950
  407SOL     OW 1261   0.315   2.676   0.950
  407SOL    HW1 1262   0.412   2.689   0.932
  407SOL    HW2 1263   0.299   2.584   0.986
  408SOL     OW 1264   0.335   2.377   1.014
  408SOL    HW1 1265   0.291   2.289   0.995
  408SOL    HW2 1266   0.414   2.389   0.953
  409SOL     OW 1267   1.136   2.239   1.688
  409SOL    HW1 1268   1.084   2.297   1.751
  409SOL    HW2 1269   1.229   2.275   1.679
  410SOL     OW 1270   1.152   2.074   1.474
  410SOL    HW1 1271   1.146   2.139   1.550
  410SOL    HW2 1272   1.199   2.118   1.397
  411SOL     OW 1273   0.980   2.669   1.233
  411SOL    HW1 1274   1.037   2.638   1.309
  411SOL    HW2 1275   0.895   2.617   1.232
  412SOL     OW 1276   0.048   2.440   1.118
  412SOL    HW1 1277   0.124   2.394   1.072
  412SOL    HW2 1278   0.032   2.398   1.207
  413SOL     OW 1279   0.196   2.381   1.722
  413SOL    HW1 1280   0.265   2.343   1.660
  413SOL    HW2 1281   0.158   2.464   1.682
  414SOL     OW 1282   1.378   2.803   1.660
  414SOL    HW1 1283   1.400   2.901   1.665
  414SOL    HW2 1284   1.372   2.775   1.565
  415SOL     OW 1285   0.821   2.440   0.348
  415SOL    HW1 1286   0.824   2.356   0.293
  415SOL    HW2 1287   0.737   2.491   0.327
  416SOL     OW 1288   1.644   2.466   1.189
  416SOL    HW1 1289   1.626   2.403   1.265
  416SOL    HW2 1290   1.734   2.447   1.150
  417SOL     OW 1291   0.699   2.314   1.259
  417SOL    HW1 1292   0.644   2.235   1.232
  417SOL    HW2 1293   0.700   2.381   1.185
  418SOL     OW 1294   0.439   2.359   0.211
  418SOL    HW1 1295   0.518   2.419   0.223
  418SOL    HW2 1296   0.359   2.413   0.186
  419SOL     OW 1297   0.158   0.007   1.469
  419SOL    HW1 1298   0.146   2.956   1.555
  419SOL    HW2 1299   0.174   2.943   1.394
  420SOL     OW 1300   1.345   2.905   1.220
  420SOL    HW1 1301   1.362   2.839   1.146
  420SOL    HW2 1302   1.275   2.970   1.191
  421SOL     OW 1303   1.299   2.722   0.312
  421SOL    HW1 1304   1.224   2.678   0.362
  421SOL    HW2 1305   1.291   2.700   0.215
  422SOL     OW 1306   0.899   1.938   0.127
  422SOL    HW1 1307   0.944   1.920   0.040
  422SOL    HW2 1308   0.950   1.894   0.201
  423SOL     OW 1309   1.712   2.003   0.507
  423SOL    HW1 1310   1.795   2.000   0.453
  423SOL    HW2 1311   1.698   1.914   0.552
  424SOL     OW 1312   1.295   2.793   0.683
  424SOL    HW1 1313   1.366   2.723   0.683
  424SOL    HW2 1314   1.303   2.850   0.601
  425SOL     OW 1315   1.839   2.034   0.968
  425SOL    HW1 1316   1.876   1.944   0.945
  425SOL    HW2 1317   1.749   2.045   0.926
  426SOL     OW 1318   0.267   2.180   0.722
  426SOL    HW1 1319   0.180   2.219   0.691
  426SOL    HW2 1320   0.263   2.165   0.821
  427SOL     OW 1321   0.814   2.860   1.375
  427SOL    HW1 1322   0.872   2.825   1.302
  427SOL    HW2 1323   0.837   2.957   1.391
  428SOL     OW 1324   0.903   2.795   0.285
  428SOL    HW1 1325   0.983   2.820   0.230
  428SOL    HW2 1326   0.932   2.738   0.362
  429SOL     OW 1327   1.020   2.101   0.966
  429SOL    HW1 1328   1.014   2.055   0.877
  429SOL    HW2 1329   1.015   2.033   1.039
  430SOL     OW 1330   1.724   2.255   1.380
  430SOL    HW1 1331   1.797   2.324   1.379
  430SOL    HW2 1332   1.749   2.179   1.320
  431SOL     OW 1333   0.118   2.866   1.696
  431SOL    HW1 1334   0.044   2.847   1.761
  431SOL    HW2 1335   0.206   2.850   1.741
  432SOL     OW 1336   0.679   2.059   1.499
  432SOL    HW1 1337   0.765   2.039   1.453
  432SOL    HW2 1338   0.697   2.087   1.593
  433SOL     OW 1339   0.052   2.170   0.057
  433SOL    HW1 1340   2.962   2.205   0.031
  433SOL    HW2 1341   0.123   2.230   0.020
  434SOL     OW 1342   1.432   2.716   1.402
  434SOL    HW1 1343   1.384   2.777   1.339
  434SOL    HW2 1344   1.530   2.715   1.380
  435SOL     OW 1345   0.062   2.061   0.320
  435SOL    HW1 1346   0.047   2.102   0.230
  435SOL    HW2 1347   0.129   1.987   0.312
  436SOL     OW 1348   1.138   0.212   0.093
  436SOL    HW1 1349   1.064   0.256   0.143
  436SOL    HW2 1350   1.222   0.217   0.146
  437SOL     OW 1351   0.615   2.690   1.435
  437SOL    HW1 1352   0.674   2.769   1.417
  437SOL    HW2 1353   0.672   2.608   1.445
  438SOL     OW 1354   0.719   2.426   1.707
  438SOL    HW1 1355   0.759   2.495   1.767
  438SOL    HW2 1356   0.750   2.336   1.735
  439SOL     OW 1357   1.677   2.744   1.254
  439SOL    HW1 1358   1.666   2.651   1.217
  439SOL    HW2 1359   1.657   2.811   1.182
  440SOL     OW 1360   1.223   2.179   0.462
  440SOL    HW1 1361   1.288   2.104   0.448
  440SOL    HW2 1362   1.251   2.233   0.541
  441SOL     OW 1363   0.590   2.589   0.663
  441SOL    HW1 1364   0.617   2.684   0.676
  441SOL    HW2 1365   0.517   2.583   0.595
  442SOL     OW 1366   1.760   2.225   1.648
  442SOL    HW1 1367   1.746   2.239   1.550
  442SOL    HW2 1368   1.688   2.166   1.684
  443SOL     OW 1369   1.737   2.796   1.513
  443SOL    HW1 1370   1.751   2.891   1.538
  443SOL    HW2 1371   1.728   2.788   1.414
  444SOL     OW 1372   0.891   2.830   0.865
  444SOL    HW1 1373   0.930   2.745   0.900
  444SOL    HW2 1374   0.827   2.868   0.931
  445SOL     OW 1375   1.111   2.886   0.085
  445SOL    HW1 1376   1.057   2.893   0.001
  445SOL    HW2 1377   1.177   2.811   0.077
  446SOL     OW 1378   1.803   2.044   1.237
  446SOL    HW1 1379   1.837   1.956   1.270
  446SOL    HW2 1380   1.818   2.051   1.138
  447SOL     OW 1381   0.432   2.292   0.529
  447SOL    HW1 1382   0.465   2.221   0.467
  447SOL    HW2 1383   0.381   2.250   0.604
  448SOL     OW 1384   0.336   2.416   1.288
  448SOL    HW1 1385   0.398   2.363   1.345
  448SOL    HW2 1386   0.349   2.390   1.192
  449SOL     OW 1387   1.431   2.088   1.119
  449SOL    HW1 1388   1.468   2.007   1.165
  449SOL    HW2 1389   1.376   2.141   1.183
  450SOL     OW 1390   1.004   1.881   1.144
  450SOL    HW1 1391   0.944   1.816   1.098
  450SOL    HW2 1392   1.098   1.848   1.140
  451SOL     OW 1393   1.352   1.914   0.162
  451SOL    HW1 1394   1.386   1.863   0.083
  451SOL    HW2 1395   1.263   1.877   0.189
  452SOL     OW 1396   1.297   2.326   0.685
  452SOL    HW1 1397   1.240   2.407   0.689
  452SOL    HW2 1398   1.294   2.279   0.774
  453SOL     OW 1399   1.586   2.069   0.879
  453SOL    HW1 1400   1.522   2.084   0.954
  453SOL    HW2 1401   1.589   2.150   0.820
  454SOL     OW 1402   2.998   2.883   0.283
  454SOL    HW1 1403   0.086   2.917   0.249
  454SOL    HW2 1404   0.010   2.849   0.376
  455SOL     OW 1405   0.231   2.500   1.972
  455SOL    HW1 1406   0.162   2.457   2.030
  455SOL    HW2 1407   0.224   2.465   1.879
  456SOL     OW 1408   0.234   2.126   2.839
  456SOL    HW1 1409   0.273   2.099   2.927
  456SOL    HW2 1410   0.143   2.087   2.830
  457SOL     OW 1411   0.016   2.249   2.503
  457SOL    HW1 1412   2.929   2.288   2.532
  457SOL    HW2 1413   0.001   2.158   2.465
  458SOL     OW 1414   1.136   2.570   2.563
  458SOL    HW1 1415   1.187   2.655   2.550
  458SOL    HW2 1416   1.082   2.576   2.646
  459SOL     OW 1417   1.760   2.465   2.088
  459SOL    HW1 1418   1.743   2.458   1.990
  459SOL    HW2 1419   1.728   2.383   2.134
  460SOL     OW 1420   0.784   0.012   2.876
  460SOL    HW1 1421   0.695   0.021   2.922
  460SOL    HW2 1422   0.800   0.092   2.819
  461SOL     OW 1423   0.651   2.847   2.572
  461SOL    HW1 1424   0.748   2.847   2.596
  461SOL    HW2 1425   0.630   2.931   2.522
  462SOL     OW 1426   1.618   2.312   2.595
  462SOL    HW1 1427   1.538   2.332   2.539
  462SOL    HW2 1428   1.622   2.377   2.672
  463SOL     OW 1429   0.207   0.314   2.324
  463SOL    HW1 1430   0.233   0.391   2.382
  463SOL    HW2 1431   0.207   0.230   2.378
  464SOL     OW 1432   0.234   2.943   2.743
  464SOL    HW1 1433   0.259   2.853   2.779
  464SOL    HW2 1434   0.212   0.004   2.819
  465SOL     OW 1435   0.607   2.823   1.994
  465SOL    HW1 1436   0.594   2.908   1.943
  465SOL    HW2 1437   0.671   2.839   2.069
  466SOL     OW 1438   0.116   2.498   2.427
  466SOL    HW1 1439   0.093   2.407   2.461
  466SOL    HW2 1440   0.118   2.563   2.502
  467SOL     OW 1441   1.701   2.805   2.487
  467SOL    HW1 1442   1.783   2.749   2.501
  467SOL    HW2 1443   1.687   2.819   2.390
  468SOL     OW 1444   0.623   0.244   2.574
  468SOL    HW1 1445   0.592   0.154   2.541
  468SOL    HW2 1446   0.615   0.311   2.500
  469SOL     OW 1447   0.812   1.866   2.366
  469SOL    HW1 1448   0.858   1.953   2.349
  469SOL    HW2 1449   0.714   1.881   2.378
  470SOL     OW 1450   0.215   2.804   0.104
  470SOL    HW1 1451   0.279   2.727   0.099
  470SOL    HW2 1452   0.122   2.770   0.092
  471SOL     OW 1453   1.539   2.843   2.048
  471SOL    HW1 1454   1.467   2.787   2.089
  471SOL    HW2 1455   1.602   2.874   2.120
  472SOL     OW 1456   0.597   2.580   2.130
  472SOL    HW1 1457   0.602   2.661   2.071
  472SOL    HW2 1458   0.528   2.595   2.201
  473SOL     OW 1459   1.298   2.199   2.809
  473SOL    HW1 1460   1.201   2.179   2.798
  473SOL    HW2 1461   1.328   2.171   2.900
  474SOL     OW 1462   1.051   2.561   2.289
  474SOL    HW1 1463   1.067   2.559   2.387
  474SOL    HW2 1464   0.965   2.514   2.268
  475SOL     OW 1465   0.109   2.673   2.626
  475SOL    HW1 1466   0.189   2.673   2.686
  475SOL    HW2 1467   0.040   2.736   2.661
  476SOL     OW 1468   0.888   2.211   2.057
  476SOL    HW1 1469   0.931   2.276   1.995
  476SOL    HW2 1470   0.903   2.118   2.022
  477SOL     OW 1471   0.549   2.045   2.768
  477SOL    HW1 1472   0.516   2.078   2.856
  477SOL    HW2 1473   0.560   2.122   2.705
  478SOL     OW 1474   1.796   2.907   2.729
  478SOL    HW1 1475   1.740   2.887   2.648
  478SOL    HW2 1476   1.737   2.914   2.809
  479SOL     OW 1477   1.484   2.604   2.584
  479SOL    HW1 1478   1.468   2.546   2.663
  479SOL    HW2 1479   1.563   2.663   2.601
  480SOL     OW 1480   1.403   1.968   2.292
  480SOL    HW1 1481   1.388   1.943   2.197
  480SOL    HW2 1482   1.500   1.978   2.310
  481SOL     OW 1483   0.396   2.551   2.335
  481SOL    HW1 1484   0.414   2.453   2.350
  481SOL    HW2 1485   0.300   2.570   2.353
  482SOL     OW 1486   0.630   1.986   1.966
  482SOL    HW1 1487   0.707   1.925   1.986
  482SOL    HW2 1488   0.580   1.951   1.887
  483SOL     OW 1489   0.922   2.379   2.756
  483SOL    HW1 1490   0.900   2.358   2.660
  483SOL    HW2 1491   0.961   2.298   2.799
  484SOL     OW 1492   0.546   1.926   2.364
  484SOL    HW1 1493   0.462   1.924   2.419
  484SOL    HW2 1494   0.546   2.006   2.305
  485SOL     OW 1495   0.291   1.905   2.042
  485SOL    HW1 1496   0.347   1.981   2.008
  485SOL    HW2 1497   0.350   1.838   2.087
  486SOL     OW 1498   0.940   2.106   2.324
  486SOL    HW1 1499   0.904   2.152   2.242
  486SOL    HW2 1500   1.039   2.120   2.328
  487SOL     OW 1501   1.024   2.406   1.884
  487SOL    HW1 1502   0.977   2.491   1.861
  487SOL    HW2 1503   1.091   2.424   1.956
  488SOL     OW 1504   0.868   2.318   2.498
  488SOL    HW1 1505   0.819   2.381   2.438
  488SOL    HW2 1506   0.891   2.235   2.448
  489SOL     OW 1507   1.012   1.909   2.611
  489SOL    HW1 1508   0.953   1.910   2.530
  489SOL    HW2 1509   0.991   1.829   2.667
  490SOL     OW 1510   1.424   2.996   2.736
  490SOL    HW1 1511   1.353   2.937   2.699
  490SOL    HW2 1512   1.455   0.060   2.665
  491SOL     OW 1513   1.485   2.447   2.817
  491SOL    HW1 1514   1.417   2.374   2.823
  491SOL    HW2 1515   1.511   2.476   2.909
  492SOL     OW 1516   1.837   2.664   2.251
  492SOL    HW1 1517   1.898   2.616   2.313
  492SOL    HW2 1518   1.812   2.603   2.175
  493SOL     OW 1519   1.391   2.435   1.934
  493SOL    HW1 1520   1.330   2.413   2.010
  493SOL    HW2 1521   1.484   2.405   1.957
  494SOL     OW 1522   0.530   2.126   2.179
  494SOL    HW1 1523   0.569   2.070   2.106
  494SOL    HW2 1524   0.507   2.217   2.143
  495SOL     OW 1525   1.626   2.966   2.935
  495SOL    HW1 1526   1.638   0.047   2.993
  495SOL    HW2 1527   1.548   2.981   2.874
  496SOL     OW 1528   0.552   2.400   2.726
  496SOL    HW1 1529   0.566   2.457   2.645
  496SOL    HW2 1530   0.616   2.427   2.798
  497SOL     OW 1531   1.576   2.486   2.334
  497SOL    HW1 1532   1.535   2.539   2.408
  497SOL    HW2 1533   1.637   2.545   2.280
  498SOL     OW 1534   0.578   2.726   2.884
  498SOL    HW1 1535   0.616   2.807   2.839
  498SOL    HW2 1536   0.563   2.747   2.981
  499SOL     OW 1537   1.204   2.391   2.132
  499SOL    HW1 1538   1.216   2.307   2.186
  499SOL    HW2 1539   1.157   2.460   2.187
  500SOL     OW 1540   0.328   2.060   0.078
  500SOL    HW1 1541   0.320   2.109   0.165
  500SOL    HW2 1542   0.304   1.964   0.092
  501SOL     OW 1543   0.729   2.500   2.912
  501SOL    HW1 1544   0.799   2.474   2.846
  501SOL    HW2 1545   0.689   2.588   2.886
  502SOL     OW 1546   0.302   1.930   2.485
  502SOL    HW1 1547   0.284   2.026   2.509
  502SOL    HW2 1548   0.310   1.876   2.569
  503SOL     OW 1549   1.618   2.236   2.230
  503SOL    HW1 1550   1.646   2.166   2.296
  503SOL    HW2 1551   1.591   2.319   2.279
  504SOL     OW 1552   1.023   2.616   2.821
  504SOL    HW1 1553   1.025   2.628   2.920
  504SOL    HW2 1554   0.992   2.524   2.798
  505SOL     OW 1555   1.529   2.133   1.994
  505SOL    HW1 1556   1.459   2.065   2.017
  505SOL    HW2 1557   1.565   2.174   2.077
  506SOL     OW 1558   1.293   2.687   1.894
  506SOL    HW1 1559   1.333   2.596   1.903
  506SOL    HW2 1560   1.323   2.729   1.809
  507SOL     OW 1561   0.314   2.673   2.808
  507SOL    HW1 1562   0.412   2.693   2.810
  507SOL    HW2 1563   0.298   2.581   2.843
  508SOL     OW 1564   0.320   2.385   2.867
  508SOL    HW1 1565   0.285   2.292   2.853
  508SOL    HW2 1566   0.404   2.397   2.814
  509SOL     OW 1567   0.981   2.615   0.086
  509SOL    HW1 1568   1.032   2.605   0.172
  509SOL    HW2 1569   0.885   2.635   0.106
  510SOL     OW 1570   0.818   2.433   2.215
  510SOL    HW1 1571   0.823   2.352   2.156
  510SOL    HW2 1572   0.740   2.489   2.189
  511SOL     OW 1573   0.702   2.313   0.100
  511SOL    HW1 1574   0.616   2.263   0.091
  511SOL    HW2 1575   0.705   2.386   0.033
  512SOL     OW 1576   0.463   2.358   2.050
  512SOL    HW1 1577   0.531   2.428   2.072
  512SOL    HW2 1578   0.373   2.400   2.040
  513SOL     OW 1579   1.303   2.725   2.168
  513SOL    HW1 1580   1.228   2.686   2.221
  513SOL    HW2 1581   1.288   2.705   2.071
  514SOL     OW 1582   1.716   2.003   2.368
  514SOL    HW1 1583   1.795   1.995   2.307
  514SOL    HW2 1584   1.701   1.915   2.414
  515SOL     OW 1585   1.295   2.796   2.544
  515SOL    HW1 1586   1.365   2.725   2.547
  515SOL    HW2 1587   1.305   2.848   2.459
  516SOL     OW 1588   1.841   2.040   2.819
  516SOL    HW1 1589   1.876   1.949   2.797
  516SOL    HW2 1590   1.747   2.049   2.786
  517SOL     OW 1591   0.269   2.181   2.577
  517SOL    HW1 1592   0.181   2.221   2.551
  517SOL    HW2 1593   0.270   2.165   2.675
  518SOL     OW 1594   0.906   2.759   2.110
  518SOL    HW1 1595   0.983   2.811   2.073
  518SOL    HW2 1596   0.936   2.708   2.191
  519SOL     OW 1597   1.037   2.109   2.802
  519SOL    HW1 1598   1.023   2.047   2.724
  519SOL    HW2 1599   1.010   2.062   2.886
  520SOL     OW 1600   0.093   2.180   1.918
  520SOL    HW1 1601   0.008   2.144   1.880
  520SOL    HW2 1602   0.111   2.271   1.880
  521SOL     OW 1603   0.065   2.060   2.176
  521SOL    HW1 1604   0.068   2.112   2.090
  521SOL    HW2 1605   0.134   1.987   2.173
  522SOL     OW 1606   1.126   0.239   2.005
  522SOL    HW1 1607   1.102   0.160   1.948
  522SOL    HW2 1608   1.214   0.222   2.050
  523SOL     OW 1609   1.728   2.710   0.051
  523SOL    HW1 1610   1.658   2.662   0.104
  523SOL    HW2 1611   1.698   2.804   0.033
  524SOL     OW 1612   1.221   2.180   2.321
  524SOL    HW1 1613   1.286   2.104   2.309
  524SOL    HW2 1614   1.247   2.233   2.401
  525SOL     OW 1615   0.593   2.585   2.525
  525SOL    HW1 1616   0.619   2.681   2.539
  525SOL    HW2 1617   0.520   2.580   2.457
  526SOL     OW 1618   0.886   2.823   2.717
  526SOL    HW1 1619   0.931   2.744   2.758
  526SOL    HW2 1620   0.846   2.880   2.789
  527SOL     OW 1621   1.105   2.877   1.953
  527SOL    HW1 1622   1.057   2.907   1.871
  527SOL    HW2 1623   1.164   2.799   1.930
  528SOL     OW 1624   1.825   2.051   0.093
  528SOL    HW1 1625   1.792   1.958   0.108
  528SOL    HW2 1626   1.832   2.069   2.995
  529SOL     OW 1627   0.428   2.290   2.383
  529SOL    HW1 1628   0.463   2.217   2.325
  529SOL    HW2 1629   0.380   2.251   2.461
  530SOL     OW 1630   1.348   1.916   2.028
  530SOL    HW1 1631   1.382   1.852   1.959
  530SOL    HW2 1632   1.257   1.887   2.058
  531SOL     OW 1633   1.295   2.321   2.549
  531SOL    HW1 1634   1.240   2.404   2.554
  531SOL    HW2 1635   1.296   2.276   2.639
  532SOL     OW 1636   1.585   2.077   2.737
  532SOL    HW1 1637   1.498   2.088   2.784
  532SOL    HW2 1638   1.599   2.154   2.675
  533SOL     OW 1639   0.018   2.932   2.156
  533SOL    HW1 1640   0.117   2.923   2.140
  533SOL    HW2 1641   2.991   2.875   2.234
  534SOL     OW 1642   2.092   0.632   0.121
  534SOL    HW1 1643   1.994   0.628   0.140
  534SOL    HW2 1644   2.109   0.601   0.028
  535SOL     OW 1645   2.077   0.286   1.009
  535SOL    HW1 1646   2.112   0.251   1.095
  535SOL    HW2 1647   1.989   0.243   0.989
  536SOL     OW 1648   1.865   0.384   0.640
  536SOL    HW1 1649   1.780   0.413   0.685
  536SOL    HW2 1650   1.846   0.306   0.581
  537SOL     OW 1651   2.427   1.284   1.174
  537SOL    HW1 1652   2.335   1.285   1.133
  537SOL    HW2 1653   2.447   1.374   1.212
  538SOL     OW 1654   2.614   1.145   1.033
  538SOL    HW1 1655   2.544   1.177   1.097
  538SOL    HW2 1656   2.659   1.223   0.991
  539SOL     OW 1657   2.720   0.777   1.815
  539SOL    HW1 1658   2.714   0.845   1.888
  539SOL    HW2 1659   2.746   0.822   1.729
  540SOL     OW 1660   2.545   1.006   0.653
  540SOL    HW1 1661   2.612   0.988   0.725
  540SOL    HW2 1662   2.469   1.059   0.690
  541SOL     OW 1663   2.568   1.156   1.812
  541SOL    HW1 1664   2.621   1.236   1.840
  541SOL    HW2 1665   2.481   1.185   1.774
  542SOL     OW 1666   2.190   1.427   1.066
  542SOL    HW1 1667   2.115   1.390   1.012
  542SOL    HW2 1668   2.249   1.483   1.006
  543SOL     OW 1669   2.313   0.401   1.487
  543SOL    HW1 1670   2.392   0.340   1.491
  543SOL    HW2 1671   2.230   0.347   1.502
  544SOL     OW 1672   2.085   1.714   0.475
  544SOL    HW1 1673   2.102   1.793   0.533
  544SOL    HW2 1674   2.162   1.701   0.412
  545SOL     OW 1675   2.979   1.347   1.693
  545SOL    HW1 1676   0.047   1.348   1.767
  545SOL    HW2 1677   2.932   1.258   1.693
  546SOL     OW 1678   2.085   1.443   0.535
  546SOL    HW1 1679   2.076   1.542   0.540
  546SOL    HW2 1680   2.025   1.401   0.603
  547SOL     OW 1681   2.118   1.090   0.894
  547SOL    HW1 1682   2.118   0.998   0.934
  547SOL    HW2 1683   2.059   1.149   0.949
  548SOL     OW 1684   2.475   1.791   1.434
  548SOL    HW1 1685   2.389   1.769   1.478
  548SOL    HW2 1686   2.500   1.886   1.455
  549SOL     OW 1687   2.452   0.977   0.150
  549SOL    HW1 1688   2.473   1.048   0.083
  549SOL    HW2 1689   2.490   1.003   0.239
  550SOL     OW 1690   1.977   0.648   0.564
  550SOL    HW1 1691   1.933   0.561   0.584
  550SOL    HW2 1692   1.972   0.707   0.645
  551SOL     OW 1693   1.872   1.587   0.123
  551SOL    HW1 1694   1.888   1.492   0.149
  551SOL    HW2 1695   1.877   1.645   0.205
  552SOL     OW 1696   1.983   0.742   1.587
  552SOL    HW1 1697   2.080   0.764   1.597
  552SOL    HW2 1698   1.929   0.827   1.587
  553SOL     OW 1699   2.471   1.384   0.734
  553SOL    HW1 1700   2.425   1.297   0.746
  553SOL    HW2 1701   2.458   1.416   0.640
  554SOL     OW 1702   2.681   0.018   0.518
  554SOL    HW1 1703   2.715   0.110   0.497
  554SOL    HW2 1704   2.582   0.015   0.501
  555SOL     OW 1705   2.054   0.966   1.262
  555SOL    HW1 1706   2.142   0.921   1.251
  555SOL    HW2 1707   1.981   0.906   1.228
  556SOL     OW 1708   2.187   0.254   1.804
  556SOL    HW1 1709   2.244   0.333   1.825
  556SOL    HW2 1710   2.096   0.267   1.844
  557SOL     OW 1711   2.453   0.721   0.269
  557SOL    HW1 1712   2.461   0.806   0.217
  557SOL    HW2 1713   2.385   0.733   0.342
  558SOL     OW 1714   2.649   0.625   1.454
  558SOL    HW1 1715   2.625   0.599   1.547
  558SOL    HW2 1716   2.611   0.557   1.390
  559SOL     OW 1717   2.830   0.881   1.573
  559SOL    HW1 1718   2.858   0.790   1.543
  559SOL    HW2 1719   2.779   0.926   1.499
  560SOL     OW 1720   2.847   0.373   1.260
  560SOL    HW1 1721   2.771   0.428   1.294
  560SOL    HW2 1722   2.846   0.372   1.160
  561SOL     OW 1723   2.892   0.714   0.407
  561SOL    HW1 1724   2.938   0.700   0.495
  561SOL    HW2 1725   2.812   0.654   0.401
  562SOL     OW 1726   1.953   0.823   0.775
  562SOL    HW1 1727   2.039   0.811   0.825
  562SOL    HW2 1728   1.905   0.902   0.810
  563SOL     OW 1729   2.777   0.343   0.220
  563SOL    HW1 1730   2.769   0.402   0.139
  563SOL    HW2 1731   2.772   0.247   0.192
  564SOL     OW 1732   2.379   0.201   0.913
  564SOL    HW1 1733   2.398   0.213   1.011
  564SOL    HW2 1734   2.407   0.283   0.864
  565SOL     OW 1735   2.853   1.441   0.465
  565SOL    HW1 1736   2.822   1.523   0.418
  565SOL    HW2 1737   2.862   1.460   0.563
  566SOL     OW 1738   2.221   1.805   0.854
  566SOL    HW1 1739   2.265   1.716   0.869
  566SOL    HW2 1740   2.286   1.878   0.877
  567SOL     OW 1741   2.181   0.951   0.243
  567SOL    HW1 1742   2.271   0.970   0.202
  567SOL    HW2 1743   2.148   0.863   0.211
  568SOL     OW 1744   2.323   1.259   1.734
  568SOL    HW1 1745   2.296   1.268   1.638
  568SOL    HW2 1746   2.241   1.259   1.791
  569SOL     OW 1747   2.064   0.295   1.498
  569SOL    HW1 1748   1.979   0.347   1.494
  569SOL    HW2 1749   2.053   0.219   1.563
  570SOL     OW 1750   2.328   1.723   0.332
  570SOL    HW1 1751   2.360   1.796   0.392
  570SOL    HW2 1752   2.398   1.705   0.262
  571SOL     OW 1753   2.122   1.791   1.239
  571SOL    HW1 1754   2.160   1.711   1.284
  571SOL    HW2 1755   2.078   1.764   1.153
  572SOL     OW 1756   2.799   1.696   0.899
  572SOL    HW1 1757   2.864   1.629   0.937
  572SOL    HW2 1758   2.750   1.655   0.822
  573SOL     OW 1759   2.256   0.686   0.477
  573SOL    HW1 1760   2.290   0.594   0.495
  573SOL    HW2 1761   2.159   0.690   0.498
  574SOL     OW 1762   2.478   0.105   0.101
  574SOL    HW1 1763   2.576   0.114   0.119
  574SOL    HW2 1764   2.457   0.147   0.013
  575SOL     OW 1765   2.632   0.277   1.755
  575SOL    HW1 1766   2.706   0.211   1.763
  575SOL    HW2 1767   2.574   0.273   1.837
  576SOL     OW 1768   2.740   1.514   1.191
  576SOL    HW1 1769   2.716   1.480   1.100
  576SOL    HW2 1770   2.806   1.451   1.233
  577SOL     OW 1771   2.670   1.401   0.937
  577SOL    HW1 1772   2.759   1.388   0.893
  577SOL    HW2 1773   2.598   1.397   0.868
  578SOL     OW 1774   2.784   0.504   0.904
  578SOL    HW1 1775   2.754   0.496   0.809
  578SOL    HW2 1776   2.828   0.419   0.932
  579SOL     OW 1777   2.400   0.047   0.496
  579SOL    HW1 1778   2.312   0.036   0.542
  579SOL    HW2 1779   2.398   0.130   0.440
  580SOL     OW 1780   0.321   1.151   0.045
  580SOL    HW1 1781   0.311   1.088   0.122
  580SOL    HW2 1782   0.254   1.224   0.054
  581SOL     OW 1783   2.159   0.089   0.188
  581SOL    HW1 1784   2.242   0.142   0.205
  581SOL    HW2 1785   2.179   2.992   0.200
  582SOL     OW 1786   2.827   0.246   0.466
  582SOL    HW1 1787   2.780   0.300   0.396
  582SOL    HW2 1788   2.908   0.203   0.426
  583SOL     OW 1789   0.081   1.578   0.798
  583SOL    HW1 1790   0.104   1.619   0.710
  583SOL    HW2 1791   0.165   1.549   0.845
  584SOL     OW 1792   2.327   1.147   0.734
  584SOL    HW1 1793   2.256   1.128   0.802
  584SOL    HW2 1794   2.289   1.133   0.642
  585SOL     OW 1795   2.887   0.507   0.027
  585SOL    HW1 1796   2.840   0.593   0.006
  585SOL    HW2 1797   2.944   0.519   0.108
  586SOL     OW 1798   1.941   0.558   1.390
  586SOL    HW1 1799   2.035   0.551   1.359
  586SOL    HW2 1800   1.933   0.629   1.460
  587SOL     OW 1801   2.427   0.214   1.183
  587SOL    HW1 1802   2.472   0.167   1.259
  587SOL    HW2 1803   2.330   0.224   1.203
  588SOL     OW 1804   2.743   0.469   0.636
  588SOL    HW1 1805   2.676   0.525   0.587
  588SOL    HW2 1806   2.739   0.375   0.601
  589SOL     OW 1807   2.858   0.058   0.759
  589SOL    HW1 1808   2.818   0.066   0.668
  589SOL    HW2 1809   2.835   2.969   0.798
  590SOL     OW 1810   2.350   1.401   0.151
  590SOL    HW1 1811   2.284   1.371   0.220
  590SOL    HW2 1812   2.304   1.411   0.063
  591SOL     OW 1813   2.391   0.260   0.320
  591SOL    HW1 1814   2.438   0.208   0.249
  591SOL    HW2 1815   2.362   0.348   0.282
  592SOL     OW 1816   2.776   0.114   1.399
  592SOL    HW1 1817   2.805   0.097   1.305
  592SOL    HW2 1818   2.838   0.181   1.441
  593SOL     OW 1819   2.837   1.108   1.728
  593SOL    HW1 1820   2.742   1.134   1.743
  593SOL    HW2 1821   2.842   1.037   1.657
  594SOL     OW 1822   2.567   1.060   0.380
  594SOL    HW1 1823   2.548   1.048   0.477
  594SOL    HW2 1824   2.655   1.019   0.358
  595SOL     OW 1825   2.280   0.812   1.253
  595SOL    HW1 1826   2.353   0.827   1.319
  595SOL    HW2 1827   2.241   0.721   1.266
  596SOL     OW 1828   2.216   1.111   0.487
  596SOL    HW1 1829   2.214   1.191   0.428
  596SOL    HW2 1830   2.212   1.028   0.431
  597SOL     OW 1831   2.417   0.547   0.864
  597SOL    HW1 1832   2.433   0.603   0.783
  597SOL    HW2 1833   2.484   0.570   0.934
  598SOL     OW 1834   2.216   1.520   1.317
  598SOL    HW1 1835   2.195   1.481   1.227
  598SOL    HW2 1836   2.315   1.537   1.323
  599SOL     OW 1837   2.275   0.745   1.600
  599SOL    HW1 1838   2.337   0.795   1.540
  599SOL    HW2 1839   2.313   0.654   1.620
  600SOL     OW 1840   2.867   0.120   1.758
  600SOL    HW1 1841   2.902   0.201   1.711
  600SOL    HW2 1842   2.902   0.038   1.713
  601SOL     OW 1843   2.364   0.056   1.749
  601SOL    HW1 1844   2.333   2.983   1.689
  601SOL    HW2 1845   2.291   0.123   1.760
  602SOL     OW 1846   2.442   0.873   1.032
  602SOL    HW1 1847   2.480   0.965   1.027
  602SOL    HW2 1848   2.384   0.865   1.113
  603SOL     OW 1849   0.063   0.531   0.270
  603SOL    HW1 1850   0.088   0.445   0.313
  603SOL    HW2 1851   0.028   0.594   0.339
  604SOL     OW 1852   2.159   0.198   1.251
  604SOL    HW1 1853   2.129   0.242   1.336
  604SOL    HW2 1854   2.141   0.099   1.256
  605SOL     OW 1855   1.929   1.323   1.268
  605SOL    HW1 1856   1.950   1.250   1.334
  605SOL    HW2 1857   1.962   1.410   1.303
  606SOL     OW 1858   2.590   0.634   1.059
  606SOL    HW1 1859   2.669   0.613   1.002
  606SOL    HW2 1860   2.557   0.726   1.038
  607SOL     OW 1861   2.169   0.063   0.644
  607SOL    HW1 1862   2.173   0.160   0.669
  607SOL    HW2 1863   2.151   0.008   0.725
  608SOL     OW 1864   2.866   0.769   0.970
  608SOL    HW1 1865   2.893   0.779   1.066
  608SOL    HW2 1866   2.870   0.672   0.945
  609SOL     OW 1867   2.830   1.567   1.700
  609SOL    HW1 1868   2.825   1.612   1.611
  609SOL    HW2 1869   2.889   1.487   1.694
  610SOL     OW 1870   2.215   0.915   1.805
  610SOL    HW1 1871   2.297   0.939   1.857
  610SOL    HW2 1872   2.239   0.851   1.732
  611SOL     OW 1873   2.908   1.343   0.834
  611SOL    HW1 1874   2.909   1.260   0.778
  611SOL    HW2 1875   2.980   1.405   0.804
  612SOL     OW 1876   2.174   0.808   0.945
  612SOL    HW1 1877   2.270   0.836   0.942
  612SOL    HW2 1878   2.168   0.714   0.981
  613SOL     OW 1879   2.196   0.525   1.014
  613SOL    HW1 1880   2.155   0.435   1.001
  613SOL    HW2 1881   2.275   0.534   0.953
  614SOL     OW 1882   2.962   0.367   1.667
  614SOL    HW1 1883   2.902   0.432   1.715
  614SOL    HW2 1884   0.055   0.402   1.665
  615SOL     OW 1885   1.873   1.314   0.180
  615SOL    HW1 1886   1.778   1.334   0.154
  615SOL    HW2 1887   1.876   1.227   0.229
  616SOL     OW 1888   1.958   1.799   0.926
  616SOL    HW1 1889   1.916   1.711   0.900
  616SOL    HW2 1890   2.053   1.800   0.897
  617SOL     OW 1891   2.362   1.574   0.907
  617SOL    HW1 1892   2.431   1.641   0.934
  617SOL    HW2 1893   2.403   1.505   0.847
  618SOL     OW 1894   2.862   0.794   1.248
  618SOL    HW1 1895   2.916   0.732   1.305
  618SOL    HW2 1896   2.768   0.759   1.241
  619SOL     OW 1897   1.898   0.542   1.118
  619SOL    HW1 1898   1.980   0.526   1.064
  619SOL    HW2 1899   1.922   0.553   1.214
  620SOL     OW 1900   2.050   0.520   1.726
  620SOL    HW1 1901   2.110   0.474   1.660
  620SOL    HW2 1902   2.006   0.598   1.683
  621SOL     OW 1903   2.673   0.573   0.349
  621SOL    HW1 1904   2.683   0.489   0.296
  621SOL    HW2 1905   2.589   0.620   0.323
  622SOL     OW 1906   2.176   1.575   1.778
  622SOL    HW1 1907   2.110   1.645   1.806
  622SOL    HW2 1908   2.128   1.489   1.761
  623SOL     OW 1909   2.557   0.460   1.262
  623SOL    HW1 1910   2.509   0.377   1.233
  623SOL    HW2 1911   2.560   0.524   1.185
  624SOL     OW 1912   2.801   1.690   1.458
  624SOL    HW1 1913   2.769   1.633   1.383
  624SOL    HW2 1914   2.773   1.785   1.442
  625SOL     OW 1915   2.316   0.494   0.202
  625SOL    HW1 1916   2.378   0.569   0.224
  625SOL    HW2 1917   2.225   0.532   0.184
  626SOL     OW 1918   2.013   1.137   1.463
  626SOL    HW1 1919   2.006   1.092   1.552
  626SOL    HW2 1920   2.032   1.069   1.392
  627SOL     OW 1921   1.938   1.273   1.003
  627SOL    HW1 1922   1.934   1.283   1.102
  627SOL    HW2 1923   1.872   1.205   0.973
  628SOL     OW 1924   2.540   1.666   1.731
  628SOL    HW1 1925   2.482   1.748   1.724
  628SOL    HW2 1926   2.611   1.669   1.660
  629SOL     OW 1927   2.762   0.085   0.144
  629SOL    HW1 1928   2.792   0.037   0.061
  629SOL    HW2 1929   2.810   0.048   0.223
  630SOL     OW 1930   1.996   1.782   1.835
  630SOL    HW1 1931   1.941   1.717   1.888
  630SOL    HW2 1932   2.048   1.841   1.897
  631SOL     OW 1933   2.676   1.271   1.427
  631SOL    HW1 1934   2.663   1.317   1.514
  631SOL    HW2 1935   2.602   1.297   1.364
  632SOL     OW 1936   2.527   1.609   0.161
  632SOL    HW1 1937   2.540   1.633   0.065
  632SOL    HW2 1938   2.473   1.525   0.167
  633SOL     OW 1939   2.134   0.346   0.751
  633SOL    HW1 1940   2.041   0.368   0.722
  633SOL    HW2 1941   2.133   0.312   0.845
  634SOL     OW 1942   2.689   1.008   1.377
  634SOL    HW1 1943   2.738   0.994   1.291
  634SOL    HW2 1944   2.689   1.106   1.398
  635SOL     OW 1945   2.798   0.948   0.310
  635SOL    HW1 1946   2.841   0.960   0.220
  635SOL    HW2 1947   2.827   0.861   0.350
  636SOL     OW 1948   2.230   1.301   1.490
  636SOL    HW1 1949   2.221   1.384   1.435
  636SOL    HW2 1950   2.149   1.243   1.476
  637SOL     OW 1951   2.915   1.085   0.724
  637SOL    HW1 1952   2.837   1.041   0.768
  637SOL    HW2 1953   2.936   1.038   0.638
  638SOL     OW 1954   2.881   0.237   0.971
  638SOL    HW1 1955   2.877   0.188   0.884
  638SOL    HW2 1956   2.870   0.172   1.046
  639SOL     OW 1957   2.460   1.486   0.482
  639SOL    HW1 1958   2.509   1.434   0.413
  639SOL    HW2 1959   2.400   1.553   0.438
  640SOL     OW 1960   2.130   1.333   0.300
  640SOL    HW1 1961   2.044   1.336   0.249
  640SOL    HW2 1962   2.118   1.379   0.387
  641SOL     OW 1963   1.975   1.030   1.729
  641SOL    HW1 1964   1.893   0.999   1.777
  641SOL    HW2 1965   2.055   0.983   1.766
  642SOL     OW 1966   2.530   0.212   1.492
  642SOL    HW1 1967   2.615   0.181   1.449
  642SOL    HW2 1968   2.546   0.227   1.590
  643SOL     OW 1969   1.911   0.197   0.329
  643SOL    HW1 1970   1.876   0.236   0.243
  643SOL    HW2 1971   2.003   0.161   0.314
  644SOL     OW 1972   2.480   0.836   1.431
  644SOL    HW1 1973   2.537   0.917   1.417
  644SOL    HW2 1974   2.539   0.755   1.440
  645SOL     OW 1975   2.581   0.562   1.705
  645SOL    HW1 1976   2.617   0.632   1.767
  645SOL    HW2 1977   2.613   0.472   1.734
  646SOL     OW 1978   2.245   1.742   1.568
  646SOL    HW1 1979   2.154   1.772   1.539
  646SOL    HW2 1980   2.236   1.660   1.625
  647SOL     OW 1981   2.456   0.740   0.662
  647SOL    HW1 1982   2.495   0.832   0.655
  647SOL    HW2 1983   2.380   0.731   0.598
  648SOL     OW 1984   2.765   1.380   0.065
  648SOL    HW1 1985   2.693   1.382   0.135
  648SOL    HW2 1986   2.732   1.421   2.981
  649SOL     OW 1987   2.523   1.795   0.949
  649SOL    HW1 1988   2.497   1.887   0.922
  649SOL    HW2 1989   2.621   1.783   0.934
  650SOL     OW 1990   2.718   0.963   0.859
  650SOL    HW1 1991   2.768   0.886   0.899
  650SOL    HW2 1992   2.683   1.022   0.931
  651SOL     OW 1993   2.953   1.016   0.076
  651SOL    HW1 1994   2.927   1.065   2.992
  651SOL    HW2 1995   0.018   0.943   0.052
  652SOL     OW 1996   2.064   1.298   1.837
  652SOL    HW1 1997   2.021   1.209   1.826
  652SOL    HW2 1998   2.064   1.323   1.934
  653SOL     OW 1999   1.944   1.235   0.664
  653SOL    HW1 2000   1.947   1.183   0.750
  653SOL    HW2 2001   2.014   1.200   0.602
  654SOL     OW 2002   2.540   1.404   1.630
  654SOL    HW1 2003   2.458   1.354   1.657
  654SOL    HW2 2004   2.537   1.496   1.669
  655SOL     OW 2005   2.340   0.430   0.553
  655SOL    HW1 2006   2.327   0.371   0.473
  655SOL    HW2 2007   2.271   0.409   0.622
  656SOL     OW 2008   2.189   0.551   1.290
  656SOL    HW1 2009   2.250   0.499   1.350
  656SOL    HW2 2010   2.210   0.529   1.194
  657SOL     OW 2011   2.683   1.585   0.681
  657SOL    HW1 2012   2.685   1.622   0.588
  657SOL    HW2 2013   2.606   1.522   0.689
  658SOL     OW 2014   2.851   0.020   1.150
  658SOL    HW1 2015   2.813   2.947   1.094
  658SOL    HW2 2016   2.948   0.002   1.167
  659SOL     OW 2017   2.630   1.329   0.316
  659SOL    HW1 2018   2.600   1.235   0.334
  659SOL    HW2 2019   2.716   1.346   0.363
  660SOL     OW 2020   2.487   1.560   1.286
  660SOL    HW1 2021   2.486   1.645   1.338
  660SOL    HW2 2022   2.577   1.547   1.244
  661SOL     OW 2023   1.904   1.072   0.306
  661SOL    HW1 2024   2.002   1.072   0.286
  661SOL    HW2 2025   1.874   0.980   0.329
  662SOL     OW 2026   2.736   1.654   0.347
  662SOL    HW1 2027   2.664   1.632   0.281
  662SOL    HW2 2028   2.708   1.735   0.400
  663SOL     OW 2029   2.090   0.621   1.984
  663SOL    HW1 2030   1.998   0.622   2.024
  663SOL    HW2 2031   2.085   0.596   1.888
  664SOL     OW 2032   2.086   0.277   2.880
  664SOL    HW1 2033   2.108   0.238   2.969
  664SOL    HW2 2034   1.997   0.242   2.850
  665SOL     OW 2035   1.865   0.384   2.501
  665SOL    HW1 2036   1.782   0.417   2.546
  665SOL    HW2 2037   1.844   0.305   2.444
  666SOL     OW 2038   2.611   1.149   2.893
  666SOL    HW1 2039   2.548   1.187   2.960
  666SOL    HW2 2040   2.660   1.223   2.846
  667SOL     OW 2041   2.546   1.006   2.511
  667SOL    HW1 2042   2.611   0.988   2.584
  667SOL    HW2 2043   2.469   1.059   2.548
  668SOL     OW 2044   2.204   1.432   2.928
  668SOL    HW1 2045   2.122   1.394   2.886
  668SOL    HW2 2046   2.254   1.488   2.862
  669SOL     OW 2047   2.084   1.712   2.337
  669SOL    HW1 2048   2.103   1.793   2.394
  669SOL    HW2 2049   2.154   1.703   2.267
  670SOL     OW 2050   2.092   1.440   2.395
  670SOL    HW1 2051   2.079   1.539   2.398
  670SOL    HW2 2052   2.029   1.397   2.460
  671SOL     OW 2053   2.121   1.092   2.761
  671SOL    HW1 2054   2.114   0.998   2.793
  671SOL    HW2 2055   2.058   1.150   2.812
  672SOL     OW 2056   2.452   0.982   1.996
  672SOL    HW1 2057   2.494   1.036   1.922
  672SOL    HW2 2058   2.491   1.011   2.084
  673SOL     OW 2059   1.978   0.648   2.427
  673SOL    HW1 2060   1.932   0.562   2.446
  673SOL    HW2 2061   1.972   0.707   2.507
  674SOL     OW 2062   1.876   1.596   1.985
  674SOL    HW1 2063   1.873   1.499   2.008
  674SOL    HW2 2064   1.865   1.650   2.068
  675SOL     OW 2065   2.468   1.383   2.593
  675SOL    HW1 2066   2.420   1.296   2.604
  675SOL    HW2 2067   2.456   1.415   2.498
  676SOL     OW 2068   2.682   0.017   2.378
  676SOL    HW1 2069   2.718   0.107   2.353
  676SOL    HW2 2070   2.583   0.015   2.362
  677SOL     OW 2071   2.458   0.725   2.128
  677SOL    HW1 2072   2.465   0.807   2.070
  677SOL    HW2 2073   2.389   0.740   2.198
  678SOL     OW 2074   2.890   0.707   2.280
  678SOL    HW1 2075   2.930   0.691   2.370
  678SOL    HW2 2076   2.810   0.649   2.268
  679SOL     OW 2077   1.954   0.824   2.636
  679SOL    HW1 2078   2.037   0.811   2.689
  679SOL    HW2 2079   1.903   0.902   2.672
  680SOL     OW 2080   2.739   0.350   2.051
  680SOL    HW1 2081   2.789   0.414   1.994
  680SOL    HW2 2082   2.779   0.258   2.042
  681SOL     OW 2083   2.418   0.206   2.832
  681SOL    HW1 2084   2.359   0.272   2.878
  681SOL    HW2 2085   2.437   0.237   2.739
  682SOL     OW 2086   2.854   1.439   2.329
  682SOL    HW1 2087   2.821   1.520   2.281
  682SOL    HW2 2088   2.866   1.460   2.426
  683SOL     OW 2089   2.218   1.806   2.718
  683SOL    HW1 2090   2.262   1.717   2.731
  683SOL    HW2 2091   2.283   1.878   2.739
  684SOL     OW 2092   2.186   0.955   2.111
  684SOL    HW1 2093   2.273   0.977   2.067
  684SOL    HW2 2094   2.149   0.871   2.070
  685SOL     OW 2095   2.328   1.737   2.182
  685SOL    HW1 2096   2.367   1.798   2.251
  685SOL    HW2 2097   2.401   1.704   2.122
  686SOL     OW 2098   2.126   1.800   0.103
  686SOL    HW1 2099   2.174   1.734   0.160
  686SOL    HW2 2100   2.077   1.753   0.030
  687SOL     OW 2101   2.793   1.700   2.759
  687SOL    HW1 2102   2.859   1.640   2.804
  687SOL    HW2 2103   2.751   1.652   2.682
  688SOL     OW 2104   2.256   0.686   2.341
  688SOL    HW1 2105   2.290   0.593   2.356
  688SOL    HW2 2106   2.158   0.690   2.361
  689SOL     OW 2107   2.490   0.123   1.972
  689SOL    HW1 2108   2.581   0.082   1.975
  689SOL    HW2 2109   2.447   0.101   1.885
  690SOL     OW 2110   2.664   1.398   2.789
  690SOL    HW1 2111   2.755   1.390   2.748
  690SOL    HW2 2112   2.595   1.394   2.716
  691SOL     OW 2113   2.783   0.520   2.755
  691SOL    HW1 2114   2.754   0.498   2.662
  691SOL    HW2 2115   2.815   0.437   2.800
  692SOL     OW 2116   2.404   0.059   2.364
  692SOL    HW1 2117   2.314   0.042   2.405
  692SOL    HW2 2118   2.397   0.135   2.299
  693SOL     OW 2119   2.148   0.032   2.061
  693SOL    HW1 2120   2.187   0.113   2.018
  693SOL    HW2 2121   2.223   2.971   2.090
  694SOL     OW 2122   2.812   0.250   2.318
  694SOL    HW1 2123   2.755   0.301   2.253
  694SOL    HW2 2124   2.896   0.221   2.273
  695SOL     OW 2125   0.081   1.573   2.661
  695SOL    HW1 2126   0.107   1.621   2.577
  695SOL    HW2 2127   0.163   1.552   2.714
  696SOL     OW 2128   2.327   1.145   2.597
  696SOL    HW1 2129   2.256   1.129   2.666
  696SOL    HW2 2130   2.289   1.130   2.505
  697SOL     OW 2131   2.882   0.550   1.881
  697SOL    HW1 2132   2.835   0.635   1.858
  697SOL    HW2 2133   2.941   0.565   1.961
  698SOL     OW 2134   2.742   0.467   2.494
  698SOL    HW1 2135   2.677   0.524   2.443
  698SOL    HW2 2136   2.743   0.375   2.454
  699SOL     OW 2137   2.856   0.055   2.614
  699SOL    HW1 2138   2.816   0.057   2.523
  699SOL    HW2 2139   2.836   2.967   2.657
  700SOL     OW 2140   2.354   1.412   2.024
  700SOL    HW1 2141   2.274   1.383   2.076
  700SOL    HW2 2142   2.333   1.410   1.926
  701SOL     OW 2143   2.396   0.267   2.181
  701SOL    HW1 2144   2.431   0.208   2.108
  701SOL    HW2 2145   2.369   0.355   2.141
  702SOL     OW 2146   2.571   1.058   2.234
  702SOL    HW1 2147   2.553   1.045   2.331
  702SOL    HW2 2148   2.653   1.007   2.209
  703SOL     OW 2149   2.217   1.108   2.351
  703SOL    HW1 2150   2.220   1.190   2.294
  703SOL    HW2 2151   2.213   1.027   2.294
  704SOL     OW 2152   2.411   0.548   2.730
  704SOL    HW1 2153   2.430   0.600   2.646
  704SOL    HW2 2154   2.481   0.569   2.798
  705SOL     OW 2155   2.439   0.871   2.880
  705SOL    HW1 2156   2.485   0.955   2.848
  705SOL    HW2 2157   2.414   0.881   2.976
  706SOL     OW 2158   0.054   0.532   2.133
  706SOL    HW1 2159   0.084   0.450   2.181
  706SOL    HW2 2160   0.017   0.598   2.199
  707SOL     OW 2161   2.597   0.646   2.916
  707SOL    HW1 2162   2.665   0.616   2.848
  707SOL    HW2 2163   2.554   0.731   2.884
  708SOL     OW 2164   2.174   0.064   2.510
  708SOL    HW1 2165   2.167   0.161   2.535
  708SOL    HW2 2166   2.152   0.007   2.589
  709SOL     OW 2167   2.873   0.775   2.829
  709SOL    HW1 2168   2.880   0.773   2.929
  709SOL    HW2 2169   2.864   0.682   2.795
  710SOL     OW 2170   2.910   1.343   2.697
  710SOL    HW1 2171   2.913   1.262   2.638
  710SOL    HW2 2172   2.978   1.410   2.667
  711SOL     OW 2173   2.172   0.809   2.809
  711SOL    HW1 2174   2.269   0.834   2.807
  711SOL    HW2 2175   2.163   0.714   2.838
  712SOL     OW 2176   2.182   0.535   2.870
  712SOL    HW1 2177   2.143   0.443   2.868
  712SOL    HW2 2178   2.264   0.537   2.813
  713SOL     OW 2179   1.863   1.321   2.059
  713SOL    HW1 2180   1.775   1.336   2.015
  713SOL    HW2 2181   1.867   1.227   2.094
  714SOL     OW 2182   1.952   1.795   2.794
  714SOL    HW1 2183   1.917   1.708   2.759
  714SOL    HW2 2184   2.049   1.804   2.768
  715SOL     OW 2185   2.366   1.579   2.764
  715SOL    HW1 2186   2.437   1.645   2.788
  715SOL    HW2 2187   2.405   1.507   2.706
  716SOL     OW 2188   2.845   0.758   0.102
  716SOL    HW1 2189   2.890   0.741   0.190
  716SOL    HW2 2190   2.747   0.769   0.118
  717SOL     OW 2191   2.669   0.565   2.215
  717SOL    HW1 2192   2.675   0.486   2.154
  717SOL    HW2 2193   2.593   0.623   2.186
  718SOL     OW 2194   2.556   0.437   0.078
  718SOL    HW1 2195   2.461   0.434   0.108
  718SOL    HW2 2196   2.571   0.520   0.023
  719SOL     OW 2197   2.327   0.497   2.052
  719SOL    HW1 2198   2.389   0.573   2.072
  719SOL    HW2 2199   2.235   0.532   2.038
  720SOL     OW 2200   1.942   1.268   2.885
  720SOL    HW1 2201   1.930   1.279   2.984
  720SOL    HW2 2202   1.869   1.212   2.849
  721SOL     OW 2203   2.531   1.616   2.016
  721SOL    HW1 2204   2.544   1.631   1.918
  721SOL    HW2 2205   2.476   1.534   2.030
  722SOL     OW 2206   2.130   0.331   2.613
  722SOL    HW1 2207   2.040   0.365   2.586
  722SOL    HW2 2208   2.130   0.309   2.710
  723SOL     OW 2209   2.789   0.922   2.154
  723SOL    HW1 2210   2.838   0.933   2.068
  723SOL    HW2 2211   2.821   0.839   2.200
  724SOL     OW 2212   2.913   1.081   2.588
  724SOL    HW1 2213   2.833   1.037   2.627
  724SOL    HW2 2214   2.935   1.038   2.500
  725SOL     OW 2215   2.885   0.236   2.818
  725SOL    HW1 2216   2.875   0.186   2.732
  725SOL    HW2 2217   2.879   0.171   2.894
  726SOL     OW 2218   2.461   1.485   2.342
  726SOL    HW1 2219   2.510   1.433   2.272
  726SOL    HW2 2220   2.395   1.547   2.298
  727SOL     OW 2221   2.117   1.348   2.147
  727SOL    HW1 2222   2.021   1.343   2.119
  727SOL    HW2 2223   2.123   1.386   2.239
  728SOL     OW 2224   1.940   0.337   1.898
  728SOL    HW1 2225   1.847   0.311   1.874
  728SOL    HW2 2226   1.969   0.414   1.842
  729SOL     OW 2227   1.897   0.206   2.157
  729SOL    HW1 2228   1.915   0.272   2.084
  729SOL    HW2 2229   1.971   0.138   2.160
  730SOL     OW 2230   2.456   0.740   2.525
  730SOL    HW1 2231   2.495   0.832   2.514
  730SOL    HW2 2232   2.380   0.728   2.461
  731SOL     OW 2233   2.731   1.368   1.901
  731SOL    HW1 2234   2.678   1.398   1.980
  731SOL    HW2 2235   2.749   1.446   1.841
  732SOL     OW 2236   2.528   1.797   2.823
  732SOL    HW1 2237   2.502   1.887   2.789
  732SOL    HW2 2238   2.625   1.781   2.803
  733SOL     OW 2239   2.713   0.962   2.721
  733SOL    HW1 2240   2.768   0.888   2.760
  733SOL    HW2 2241   2.684   1.024   2.794
  734SOL     OW 2242   2.936   0.953   1.928
  734SOL    HW1 2243   2.902   1.029   1.873
  734SOL    HW2 2244   0.028   0.972   1.960
  735SOL     OW 2245   1.946   1.236   2.526
  735SOL    HW1 2246   1.939   1.181   2.610
  735SOL    HW2 2247   2.016   1.197   2.466
  736SOL     OW 2248   2.334   0.428   2.411
  736SOL    HW1 2249   2.324   0.369   2.330
  736SOL    HW2 2250   2.267   0.402   2.480
  737SOL     OW 2251   2.683   1.584   2.539
  737SOL    HW1 2252   2.688   1.622   2.447
  737SOL    HW2 2253   2.604   1.523   2.546
  738SOL     OW 2254   2.634   1.333   2.177
  738SOL    HW1 2255   2.603   1.238   2.184
  738SOL    HW2 2256   2.719   1.344   2.229
  739SOL     OW 2257   1.906   1.071   2.167
  739SOL    HW1 2258   2.005   1.068   2.149
  739SOL    HW2 2259   1.875   0.979   2.191
  740SOL     OW 2260   2.735   1.650   2.210
  740SOL    HW1 2261   2.665   1.631   2.141
  740SOL    HW2 2262   2.712   1.734   2.259
  741SOL     OW 2263   2.090   2.495   0.112
  741SOL    HW1 2264   1.995   2.477   0.137
  741SOL    HW2 2265   2.109   2.456   0.022
  742SOL     OW 2266   2.084   2.143   0.993
  742SOL    HW1 2267   2.118   2.109   1.080
  742SOL    HW2 2268   1.991   2.108   0.978
  743SOL     OW 2269   1.868   2.247   0.636
  743SOL    HW1 2270   1.782   2.272   0.679
  743SOL    HW2 2271   1.856   2.163   0.583
  744SOL     OW 2272   2.596   0.001   1.018
  744SOL    HW1 2273   2.520   0.043   1.068
  744SOL    HW2 2274   2.645   0.071   0.967
  745SOL     OW 2275   2.722   2.637   1.818
  745SOL    HW1 2276   2.719   2.696   1.899
  745SOL    HW2 2277   2.753   2.690   1.739
  746SOL     OW 2278   2.515   2.848   0.711
  746SOL    HW1 2279   2.614   2.852   0.728
  746SOL    HW2 2280   2.486   2.930   0.662
  747SOL     OW 2281   2.306   2.259   1.491
  747SOL    HW1 2282   2.388   2.203   1.491
  747SOL    HW2 2283   2.225   2.201   1.500
  748SOL     OW 2284   2.111   0.305   0.475
  748SOL    HW1 2285   2.067   0.392   0.499
  748SOL    HW2 2286   2.053   0.229   0.502
  749SOL     OW 2287   2.109   2.945   0.883
  749SOL    HW1 2288   2.126   2.853   0.918
  749SOL    HW2 2289   2.066   0.000   0.954
  750SOL     OW 2290   2.480   2.831   0.150
  750SOL    HW1 2291   2.458   2.926   0.131
  750SOL    HW2 2292   2.552   2.826   0.220
  751SOL     OW 2293   1.975   2.513   0.563
  751SOL    HW1 2294   1.947   2.419   0.581
  751SOL    HW2 2295   1.968   2.566   0.648
  752SOL     OW 2296   1.984   2.605   1.585
  752SOL    HW1 2297   2.082   2.618   1.597
  752SOL    HW2 2298   1.936   2.690   1.604
  753SOL     OW 2299   2.523   0.249   0.679
  753SOL    HW1 2300   2.466   0.179   0.721
  753SOL    HW2 2301   2.466   0.311   0.625
  754SOL     OW 2302   2.673   1.867   0.505
  754SOL    HW1 2303   2.717   1.956   0.490
  754SOL    HW2 2304   2.575   1.880   0.516
  755SOL     OW 2305   2.058   2.842   1.256
  755SOL    HW1 2306   2.143   2.790   1.250
  755SOL    HW2 2307   1.981   2.783   1.232
  756SOL     OW 2308   2.191   2.114   1.808
  756SOL    HW1 2309   2.246   2.196   1.824
  756SOL    HW2 2310   2.098   2.128   1.843
  757SOL     OW 2311   2.454   2.581   0.273
  757SOL    HW1 2312   2.463   2.663   0.217
  757SOL    HW2 2313   2.384   2.595   0.343
  758SOL     OW 2314   2.647   2.485   1.452
  758SOL    HW1 2315   2.626   2.460   1.547
  758SOL    HW2 2316   2.610   2.417   1.390
  759SOL     OW 2317   2.825   2.745   1.581
  759SOL    HW1 2318   2.858   2.656   1.549
  759SOL    HW2 2319   2.770   2.788   1.510
  760SOL     OW 2320   2.849   2.238   1.256
  760SOL    HW1 2321   2.769   2.286   1.291
  760SOL    HW2 2322   2.840   2.226   1.157
  761SOL     OW 2323   2.889   2.579   0.410
  761SOL    HW1 2324   2.938   2.561   0.495
  761SOL    HW2 2325   2.811   2.516   0.403
  762SOL     OW 2326   1.947   2.684   0.778
  762SOL    HW1 2327   2.036   2.670   0.823
  762SOL    HW2 2328   1.906   2.768   0.812
  763SOL     OW 2329   2.786   2.195   0.218
  763SOL    HW1 2330   2.784   2.266   0.148
  763SOL    HW2 2331   2.760   2.107   0.177
  764SOL     OW 2332   2.409   2.044   0.895
  764SOL    HW1 2333   2.413   2.070   0.992
  764SOL    HW2 2334   2.412   2.127   0.838
  765SOL     OW 2335   2.060   2.142   1.500
  765SOL    HW1 2336   1.981   2.201   1.484
  765SOL    HW2 2337   2.048   2.093   1.586
  766SOL     OW 2338   2.250   2.551   0.476
  766SOL    HW1 2339   2.277   2.455   0.486
  766SOL    HW2 2340   2.153   2.562   0.496
  767SOL     OW 2341   2.487   1.980   0.116
  767SOL    HW1 2342   2.586   1.966   0.120
  767SOL    HW2 2343   2.450   1.932   0.037
  768SOL     OW 2344   2.629   2.142   1.757
  768SOL    HW1 2345   2.707   2.079   1.763
  768SOL    HW2 2346   2.566   2.124   1.833
  769SOL     OW 2347   2.787   2.364   0.901
  769SOL    HW1 2348   2.757   2.356   0.806
  769SOL    HW2 2349   2.827   2.278   0.931
  770SOL     OW 2350   2.406   1.924   0.503
  770SOL    HW1 2351   2.324   1.923   0.560
  770SOL    HW2 2352   2.405   2.004   0.443
  771SOL     OW 2353   2.813   2.099   0.465
  771SOL    HW1 2354   2.773   2.151   0.389
  771SOL    HW2 2355   2.905   2.069   0.439
  772SOL     OW 2356   2.881   2.378   0.037
  772SOL    HW1 2357   2.839   2.465   0.010
  772SOL    HW2 2358   2.945   2.393   0.113
  773SOL     OW 2359   1.943   2.418   1.390
  773SOL    HW1 2360   2.037   2.413   1.357
  773SOL    HW2 2361   1.935   2.490   1.459
  774SOL     OW 2362   2.423   2.087   1.167
  774SOL    HW1 2363   2.468   2.003   1.199
  774SOL    HW2 2364   2.328   2.086   1.196
  775SOL     OW 2365   2.742   2.320   0.634
  775SOL    HW1 2366   2.683   2.384   0.585
  775SOL    HW2 2367   2.749   2.234   0.583
  776SOL     OW 2368   2.855   1.924   0.756
  776SOL    HW1 2369   2.806   1.908   0.670
  776SOL    HW2 2370   2.849   1.842   0.813
  777SOL     OW 2371   2.380   2.123   0.321
  777SOL    HW1 2372   2.423   2.069   0.249
  777SOL    HW2 2373   2.361   2.215   0.287
  778SOL     OW 2374   2.754   1.950   1.387
  778SOL    HW1 2375   2.779   1.930   1.292
  778SOL    HW2 2376   2.831   1.995   1.432
  779SOL     OW 2377   2.276   2.678   1.255
  779SOL    HW1 2378   2.352   2.688   1.320
  779SOL    HW2 2379   2.238   2.585   1.263
  780SOL     OW 2380   2.418   2.403   0.863
  780SOL    HW1 2381   2.432   2.461   0.782
  780SOL    HW2 2382   2.485   2.428   0.933
  781SOL     OW 2383   2.275   2.602   1.602
  781SOL    HW1 2384   2.338   2.651   1.541
  781SOL    HW2 2385   2.313   2.512   1.624
  782SOL     OW 2386   2.857   1.991   1.771
  782SOL    HW1 2387   2.902   2.051   1.704
  782SOL    HW2 2388   2.899   1.900   1.767
  783SOL     OW 2389   2.358   1.909   1.747
  783SOL    HW1 2390   2.319   1.846   1.679
  783SOL    HW2 2391   2.295   1.985   1.762
  784SOL     OW 2392   2.450   2.728   1.037
  784SOL    HW1 2393   2.470   2.822   1.011
  784SOL    HW2 2394   2.384   2.727   1.112
  785SOL     OW 2395   0.060   2.400   0.269
  785SOL    HW1 2396   0.078   2.313   0.315
  785SOL    HW2 2397   0.027   2.467   0.335
  786SOL     OW 2398   2.162   2.061   1.244
  786SOL    HW1 2399   2.125   2.097   1.330
  786SOL    HW2 2400   2.150   1.961   1.242
  787SOL     OW 2401   2.589   2.492   1.060
  787SOL    HW1 2402   2.669   2.475   1.002
  787SOL    HW2 2403   2.555   2.584   1.042
  788SOL     OW 2404   2.161   1.928   0.625
  788SOL    HW1 2405   2.143   2.023   0.648
  788SOL    HW2 2406   2.173   1.875   0.708
  789SOL     OW 2407   2.858   2.622   0.980
  789SOL    HW1 2408   2.908   2.624   1.066
  789SOL    HW2 2409   2.861   2.530   0.941
  790SOL     OW 2410   2.225   2.786   1.798
  790SOL    HW1 2411   2.289   2.781   1.875
  790SOL    HW2 2412   2.245   2.713   1.733
  791SOL     OW 2413   2.176   2.672   0.945
  791SOL    HW1 2414   2.272   2.693   0.932
  791SOL    HW2 2415   2.167   2.579   0.982
  792SOL     OW 2416   2.195   2.385   1.011
  792SOL    HW1 2417   2.155   2.294   0.997
  792SOL    HW2 2418   2.276   2.395   0.952
  793SOL     OW 2419   2.966   2.243   1.669
  793SOL    HW1 2420   2.905   2.302   1.722
  793SOL    HW2 2421   0.059   2.279   1.672
  794SOL     OW 2422   2.974   2.067   1.470
  794SOL    HW1 2423   2.963   2.140   1.538
  794SOL    HW2 2424   2.975   2.108   1.379
  795SOL     OW 2425   2.856   2.668   1.262
  795SOL    HW1 2426   2.915   2.601   1.307
  795SOL    HW2 2427   2.771   2.623   1.232
  796SOL     OW 2428   1.897   2.410   1.117
  796SOL    HW1 2429   1.978   2.387   1.063
  796SOL    HW2 2430   1.922   2.414   1.214
  797SOL     OW 2431   2.052   2.381   1.723
  797SOL    HW1 2432   2.115   2.340   1.657
  797SOL    HW2 2433   2.003   2.457   1.681
  798SOL     OW 2434   2.670   2.428   0.356
  798SOL    HW1 2435   2.677   2.353   0.290
  798SOL    HW2 2436   2.593   2.487   0.331
  799SOL     OW 2437   2.556   2.318   1.262
  799SOL    HW1 2438   2.507   2.235   1.233
  799SOL    HW2 2439   2.560   2.383   1.186
  800SOL     OW 2440   2.305   2.356   0.210
  800SOL    HW1 2441   2.378   2.423   0.224
  800SOL    HW2 2442   2.220   2.404   0.185
  801SOL     OW 2443   2.018   2.993   1.477
  801SOL    HW1 2444   2.020   2.937   1.560
  801SOL    HW2 2445   2.036   2.935   1.397
  802SOL     OW 2446   2.761   1.935   0.128
  802SOL    HW1 2447   2.812   1.905   0.048
  802SOL    HW2 2448   2.800   1.894   0.210
  803SOL     OW 2449   2.124   2.179   0.719
  803SOL    HW1 2450   2.036   2.217   0.690
  803SOL    HW2 2451   2.124   2.167   0.818
  804SOL     OW 2452   2.675   2.866   1.377
  804SOL    HW1 2453   2.733   2.829   1.304
  804SOL    HW2 2454   2.702   2.961   1.396
  805SOL     OW 2455   2.742   2.785   0.288
  805SOL    HW1 2456   2.824   2.837   0.266
  805SOL    HW2 2457   2.764   2.715   0.355
  806SOL     OW 2458   2.881   2.101   0.969
  806SOL    HW1 2459   2.875   2.054   0.881
  806SOL    HW2 2460   2.869   2.035   1.043
  807SOL     OW 2461   1.975   2.864   1.711
  807SOL    HW1 2462   1.894   2.857   1.770
  807SOL    HW2 2463   2.057   2.843   1.764
  808SOL     OW 2464   2.531   2.063   1.501
  808SOL    HW1 2465   2.613   2.039   1.450
  808SOL    HW2 2466   2.556   2.092   1.593
  809SOL     OW 2467   1.933   2.019   0.339
  809SOL    HW1 2468   1.899   2.065   0.257
  809SOL    HW2 2469   2.030   1.996   0.327
  810SOL     OW 2470   2.476   2.694   1.434
  810SOL    HW1 2471   2.534   2.774   1.417
  810SOL    HW2 2472   2.533   2.613   1.442
  811SOL     OW 2473   2.580   2.424   1.704
  811SOL    HW1 2474   2.617   2.495   1.764
  811SOL    HW2 2475   2.611   2.334   1.736
  812SOL     OW 2476   2.453   2.587   0.662
  812SOL    HW1 2477   2.481   2.682   0.676
  812SOL    HW2 2478   2.380   2.583   0.594
  813SOL     OW 2479   2.754   2.838   0.865
  813SOL    HW1 2480   2.785   2.750   0.901
  813SOL    HW2 2481   2.680   2.872   0.923
  814SOL     OW 2482   2.294   2.292   0.530
  814SOL    HW1 2483   2.325   2.221   0.466
  814SOL    HW2 2484   2.242   2.250   0.604
  815SOL     OW 2485   2.191   2.414   1.288
  815SOL    HW1 2486   2.249   2.360   1.349
  815SOL    HW2 2487   2.210   2.389   1.193
  816SOL     OW 2488   2.866   1.879   1.143
  816SOL    HW1 2489   2.807   1.810   1.102
  816SOL    HW2 2490   2.962   1.859   1.120
  817SOL     OW 2491   1.870   2.913   0.301
  817SOL    HW1 2492   1.958   2.921   0.254
  817SOL    HW2 2493   1.860   2.820   0.339
  818SOL     OW 2494   2.092   2.466   1.983
  818SOL    HW1 2495   2.003   2.491   2.022
  818SOL    HW2 2496   2.082   2.450   1.885
  819SOL     OW 2497   2.088   2.143   2.847
  819SOL    HW1 2498   2.120   2.115   2.937
  819SOL    HW2 2499   1.994   2.111   2.833
  820SOL     OW 2500   1.869   2.247   2.494
  820SOL    HW1 2501   1.784   2.277   2.538
  820SOL    HW2 2502   1.854   2.160   2.448
  821SOL     OW 2503   2.646   0.016   2.879
  821SOL    HW1 2504   2.562   0.018   2.933
  821SOL    HW2 2505   2.646   0.095   2.817
  822SOL     OW 2506   2.513   2.844   2.569
  822SOL    HW1 2507   2.609   2.846   2.597
  822SOL    HW2 2508   2.489   2.930   2.525
  823SOL     OW 2509   2.101   0.299   2.331
  823SOL    HW1 2510   2.061   0.387   2.358
  823SOL    HW2 2511   2.050   0.225   2.375
  824SOL     OW 2512   2.112   2.948   2.749
  824SOL    HW1 2513   2.128   2.854   2.780
  824SOL    HW2 2514   2.060   2.997   2.819
  825SOL     OW 2515   2.465   2.824   1.997
  825SOL    HW1 2516   2.458   2.907   1.942
  825SOL    HW2 2517   2.534   2.836   2.068
  826SOL     OW 2518   1.976   2.513   2.426
  826SOL    HW1 2519   1.947   2.419   2.444
  826SOL    HW2 2520   1.969   2.566   2.511
  827SOL     OW 2521   2.498   0.249   2.566
  827SOL    HW1 2522   2.459   0.159   2.548
  827SOL    HW2 2523   2.464   0.314   2.498
  828SOL     OW 2524   2.674   1.867   2.366
  828SOL    HW1 2525   2.718   1.955   2.349
  828SOL    HW2 2526   2.576   1.881   2.379
  829SOL     OW 2527   2.062   2.806   0.115
  829SOL    HW1 2528   2.133   2.736   0.106
  829SOL    HW2 2529   1.973   2.767   0.091
  830SOL     OW 2530   2.458   2.580   2.131
  830SOL    HW1 2531   2.464   2.660   2.070
  830SOL    HW2 2532   2.389   2.597   2.201
  831SOL     OW 2533   2.894   2.577   2.273
  831SOL    HW1 2534   2.934   2.565   2.364
  831SOL    HW2 2535   2.812   2.521   2.265
  832SOL     OW 2536   1.948   2.686   2.640
  832SOL    HW1 2537   2.035   2.669   2.687
  832SOL    HW2 2538   1.904   2.768   2.677
  833SOL     OW 2539   2.749   2.209   2.059
  833SOL    HW1 2540   2.789   2.276   1.996
  833SOL    HW2 2541   2.751   2.119   2.016
  834SOL     OW 2542   2.408   2.046   2.766
  834SOL    HW1 2543   2.380   2.080   2.856
  834SOL    HW2 2544   2.420   2.123   2.703
  835SOL     OW 2545   2.250   2.551   2.337
  835SOL    HW1 2546   2.277   2.455   2.348
  835SOL    HW2 2547   2.154   2.562   2.359
  836SOL     OW 2548   2.496   1.986   1.966
  836SOL    HW1 2549   2.567   1.920   1.988
  836SOL    HW2 2550   2.443   1.953   1.887
  837SOL     OW 2551   2.786   2.376   2.755
  837SOL    HW1 2552   2.759   2.356   2.661
  837SOL    HW2 2553   2.817   2.291   2.800
  838SOL     OW 2554   2.407   1.926   2.364
  838SOL    HW1 2555   2.324   1.923   2.420
  838SOL    HW2 2556   2.406   2.007   2.306
  839SOL     OW 2557   2.153   1.908   2.044
  839SOL    HW1 2558   2.208   1.981   2.004
  839SOL    HW2 2559   2.213   1.840   2.086
  840SOL     OW 2560   2.807   2.102   2.314
  840SOL    HW1 2561   2.764   2.153   2.240
  840SOL    HW2 2562   2.899   2.075   2.287
  841SOL     OW 2563   2.882   2.412   1.882
  841SOL    HW1 2564   2.833   2.496   1.857
  841SOL    HW2 2565   2.938   2.430   1.963
  842SOL     OW 2566   2.741   2.318   2.494
  842SOL    HW1 2567   2.681   2.382   2.447
  842SOL    HW2 2568   2.747   2.233   2.441
  843SOL     OW 2569   2.853   1.924   2.609
  843SOL    HW1 2570   2.802   1.901   2.527
  843SOL    HW2 2571   2.851   1.846   2.672
  844SOL     OW 2572   2.391   2.125   2.179
  844SOL    HW1 2573   2.432   2.070   2.106
  844SOL    HW2 2574   2.368   2.216   2.144
  845SOL     OW 2575   2.416   2.398   2.724
  845SOL    HW1 2576   2.429   2.456   2.644
  845SOL    HW2 2577   2.479   2.427   2.797
  846SOL     OW 2578   2.436   2.729   2.885
  846SOL    HW1 2579   2.481   2.806   2.841
  846SOL    HW2 2580   2.427   2.747   2.983
  847SOL     OW 2581   0.052   2.392   2.136
  847SOL    HW1 2582   0.088   2.314   2.188
  847SOL    HW2 2583   0.008   2.456   2.199
  848SOL     OW 2584   2.164   2.068   0.090
  848SOL    HW1 2585   2.193   2.108   0.177
  848SOL    HW2 2586   2.152   1.969   0.101
  849SOL     OW 2587   2.591   2.499   2.911
  849SOL    HW1 2588   2.665   2.477   2.848
  849SOL    HW2 2589   2.553   2.589   2.887
  850SOL     OW 2590   2.162   1.927   2.486
  850SOL    HW1 2591   2.144   2.023   2.509
  850SOL    HW2 2592   2.171   1.874   2.571
  851SOL     OW 2593   2.873   2.630   2.824
  851SOL    HW1 2594   2.894   2.636   2.922
  851SOL    HW2 2595   2.865   2.534   2.797
  852SOL     OW 2596   2.173   2.671   2.807
  852SOL    HW1 2597   2.270   2.696   2.811
  852SOL    HW2 2598   2.163   2.576   2.836
  853SOL     OW 2599   2.182   2.396   2.864
  853SOL    HW1 2600   2.143   2.304   2.859
  853SOL    HW2 2601   2.267   2.399   2.812
  854SOL     OW 2602   2.878   2.645   0.093
  854SOL    HW1 2603   2.925   2.636   0.181
  854SOL    HW2 2604   2.783   2.673   0.109
  855SOL     OW 2605   2.674   2.430   2.217
  855SOL    HW1 2606   2.679   2.349   2.157
  855SOL    HW2 2607   2.597   2.487   2.189
  856SOL     OW 2608   2.565   2.310   0.098
  856SOL    HW1 2609   2.474   2.268   0.092
  856SOL    HW2 2610   2.571   2.385   0.032
  857SOL     OW 2611   2.329   2.355   2.052
  857SOL    HW1 2612   2.390   2.431   2.075
  857SOL    HW2 2613   2.237   2.389   2.036
  858SOL     OW 2614   0.166   2.700   2.160
  858SOL    HW1 2615   0.104   2.648   2.218
  858SOL    HW2 2616   0.203   2.640   2.088
  859SOL     OW 2617   2.124   2.179   2.577
  859SOL    HW1 2618   2.037   2.218   2.549
  859SOL    HW2 2619   2.126   2.170   2.677
  860SOL     OW 2620   2.759   2.763   2.110
  860SOL    HW1 2621   2.836   2.818   2.079
  860SOL    HW2 2622   2.790   2.701   2.183
  861SOL     OW 2623   2.878   2.102   2.817
  861SOL    HW1 2624   2.870   2.053   2.730
  861SOL    HW2 2625   2.903   2.037   2.889
  862SOL     OW 2626   1.941   2.194   1.893
  862SOL    HW1 2627   1.848   2.172   1.863
  862SOL    HW2 2628   1.973   2.275   1.845
  863SOL     OW 2629   1.931   2.019   2.173
  863SOL    HW1 2630   1.913   2.105   2.123
  863SOL    HW2 2631   2.019   1.981   2.144
  864SOL     OW 2632   2.455   2.583   2.521
  864SOL    HW1 2633   2.482   2.678   2.537
  864SOL    HW2 2634   2.379   2.581   2.456
  865SOL     OW 2635   2.744   2.831   2.715
  865SOL    HW1 2636   2.789   2.750   2.753
  865SOL    HW2 2637   2.708   2.887   2.789
  866SOL     OW 2638   2.948   2.838   1.900
  866SOL    HW1 2639   2.913   2.932   1.908
  866SOL    HW2 2640   0.013   2.821   1.974
  867SOL     OW 2641   2.295   2.291   2.388
  867SOL    HW1 2642   2.324   2.219   2.325
  867SOL    HW2 2643   2.242   2.251   2.463
  868SOL     OW 2644   1.887   2.917   2.175
  868SOL    HW1 2645   1.974   2.933   2.128
  868SOL    HW2 2646   1.879   2.820   2.198
   3.00000   3.00000   3.00000
