DOPC converted from POPC
21279
    1DOPC    C1    1   3.180   1.656   0.999
    1DOPC    C2    2   3.102   1.543   1.191
    1DOPC    C3    3   3.189   1.765   1.212
    1DOPC    N4    4   3.205   1.636   1.143
    1DOPC    C5    5   3.340   1.576   1.156
    1DOPC    C6    6   3.416   1.587   1.290
    1DOPC    O7    7   3.344   1.540   1.404
    1DOPC    P8    8   3.441   1.541   1.527
    1DOPC    O9    9   3.517   1.416   1.510
    1DOPC   O10   10   3.505   1.673   1.520
    1DOPC   O11   11   3.333   1.536   1.640
    1DOPC   C12   12   3.270   1.664   1.644
    1DOPC   C13   13   3.188   1.690   1.772
    1DOPC   O14   14   3.265   1.753   1.880
    1DOPC   C15   15   3.241   1.885   1.901
    1DOPC   O16   16   3.188   1.953   1.812
    1DOPC   C17   17   3.311   1.950   2.020
    1DOPC   C18   18   3.216   1.972   2.138
    1DOPC   C19   19   3.287   2.048   2.250
    1DOPC   C20   20   3.199   2.062   2.374
    1DOPC   C21   21   3.276   2.135   2.484
    1DOPC   C22   22   3.198   2.137   2.616
    1DOPC   C23   23   3.281   2.203   2.726
    1DOPC   C24   24   3.214   2.193   2.863
    1DOPC   C25   25   3.277   2.246   2.974
    1DOPC   C26   26   3.412   2.317   2.958
    1DOPC   C27   27   3.467   2.366   3.092
    1DOPC   C28   28   3.594   2.448   3.069
    1DOPC   C29   29   3.653   2.501   3.199
    1DOPC   C30   30   3.702   2.388   3.290
    1DOPC   C31   31   3.767   2.446   3.416
    1DOPC   C32   32   3.123   1.555   1.807
    1DOPC   O33   33   3.025   1.563   1.911
    1DOPC   C34   34   2.974   1.446   1.954
    1DOPC   O35   35   3.005   1.340   1.899
    1DOPC   C36   36   2.877   1.455   2.071
    1DOPC   C37   37   2.943   1.516   2.194
    1DOPC   C38   38   2.843   1.533   2.308
    1DOPC   C39   39   2.781   1.398   2.347
    1DOPC   C40   40   2.685   1.416   2.465
    1DOPC   C41   41   2.760   1.472   2.586
    1DOPC   C42   42   2.665   1.495   2.703
    1DOPC   C43   43   2.742   1.543   2.827
    1DOPC   C44   44   2.674   1.566   2.946
    1DOPC   C45   45   2.522   1.548   2.950
    1DOPC   C46   46   2.474   1.524   3.093
    1DOPC   C47   47   2.509   1.639   3.187
    1DOPC   C48   48   2.466   1.604   3.329
    1DOPC   C49   49   2.538   1.478   3.377
    1DOPC   C50   50   2.491   1.437   3.517
    1DOPC   CA1   51   2.516   1.549   3.618
    1DOPC   CA2   52   2.465   1.508   3.756
    1DOPC   CA3   53   3.824   2.335   3.505
    1DOPC   CA4   54   3.890   2.394   3.630
    2DOPC    C1   55   1.652   5.921   1.353
    2DOPC    C2   56   1.818   5.756   1.368
    2DOPC    C3   57   1.705   5.827   1.566
    2DOPC    N4   58   1.762   5.872   1.438
    2DOPC    C5   59   1.872   5.970   1.454
    2DOPC    C6   60   1.831   6.110   1.505
    2DOPC    O7   61   1.936   6.205   1.511
    2DOPC    P8   62   1.872   6.345   1.541
    2DOPC    O9   63   1.982   6.442   1.532
    2DOPC   O10   64   1.751   6.357   1.458
    2DOPC   O11   65   1.827   6.319   1.690
    2DOPC   C12   66   1.927   6.365   1.781
    2DOPC   C13   67   1.903   0.033   1.831
    2DOPC   O14   68   2.022   0.094   1.889
    2DOPC   C15   69   2.044   0.226   1.869
    2DOPC   O16   70   1.977   0.292   1.788
    2DOPC   C17   71   2.160   0.284   1.949
    2DOPC   C18   72   2.107   0.377   2.059
    2DOPC   C19   73   2.210   0.398   2.170
    2DOPC   C20   74   2.153   0.498   2.272
    2DOPC   C21   75   2.238   0.509   2.398
    2DOPC   C22   76   2.177   0.618   2.488
    2DOPC   C23   77   2.241   0.625   2.626
    2DOPC   C24   78   2.178   0.740   2.704
    2DOPC   C25   79   2.187   0.747   2.843
    2DOPC   C26   80   2.260   0.638   2.921
    2DOPC   C27   81   2.224   0.646   3.069
    2DOPC   C28   82   2.295   0.539   3.151
    2DOPC   C29   83   2.239   0.536   3.293
    2DOPC   C30   84   2.308   0.430   3.379
    2DOPC   C31   85   2.240   0.419   3.515
    2DOPC   C32   86   1.781   0.025   1.924
    2DOPC   O33   87   1.790   6.395   2.021
    2DOPC   C34   88   1.692   6.392   2.114
    2DOPC   O35   89   1.601   6.474   2.114
    2DOPC   C36   90   1.699   6.279   2.217
    2DOPC   C37   91   1.702   6.142   2.149
    2DOPC   C38   92   1.687   6.027   2.248
    2DOPC   C39   93   1.799   6.021   2.352
    2DOPC   C40   94   1.773   5.903   2.446
    2DOPC   C41   95   1.882   5.889   2.553
    2DOPC   C42   96   1.850   5.770   2.644
    2DOPC   C43   97   1.958   5.750   2.751
    2DOPC   C44   98   1.946   5.646   2.842
    2DOPC   C45   99   1.826   5.551   2.835
    2DOPC   C46  100   1.830   5.448   2.948
    2DOPC   C47  101   1.828   5.517   3.084
    2DOPC   C48  102   1.826   5.415   3.198
    2DOPC   C49  103   1.824   5.485   3.335
    2DOPC   C50  104   1.817   5.384   3.449
    2DOPC   CA1  105   1.689   5.300   3.441
    2DOPC   CA2  106   1.682   5.200   3.557
    2DOPC   CA3  107   2.094   0.379   3.499
    2DOPC   CA4  108   2.024   0.370   3.635
    3DOPC    C1  109   2.417   5.553   1.551
    3DOPC    C2  110   2.429   5.347   1.439
    3DOPC    C3  111   2.359   5.540   1.319
    3DOPC    N4  112   2.351   5.471   1.449
    3DOPC    C5  113   2.212   5.432   1.485
    3DOPC    C6  114   2.100   5.539   1.486
    3DOPC    O7  115   2.112   5.641   1.586
    3DOPC    P8  116   2.047   5.598   1.722
    3DOPC    O9  117   1.952   5.489   1.695
    3DOPC   O10  118   2.165   5.582   1.808
    3DOPC   O11  119   1.972   5.734   1.745
    3DOPC   C12  120   2.039   5.809   1.846
    3DOPC   C13  121   1.955   5.926   1.900
    3DOPC   O14  122   2.018   6.005   2.005
    3DOPC   C15  123   2.120   6.089   1.979
    3DOPC   O16  124   2.171   6.099   1.867
    3DOPC   C17  125   2.183   6.155   2.102
    3DOPC   C18  126   2.121   6.290   2.136
    3DOPC   C19  127   2.181   6.336   2.269
    3DOPC   C20  128   2.126   6.469   2.320
    3DOPC   C21  129   2.186   0.015   2.459
    3DOPC   C22  130   2.137   0.142   2.528
    3DOPC   C23  131   2.192   0.140   2.671
    3DOPC   C24  132   2.150   0.262   2.753
    3DOPC   C25  133   2.176   0.261   2.889
    3DOPC   C26  134   2.243   0.137   2.949
    3DOPC   C27  135   2.257   0.148   3.101
    3DOPC   C28  136   2.316   0.020   3.159
    3DOPC   C29  137   2.325   0.027   3.311
    3DOPC   C30  138   2.374   6.369   3.369
    3DOPC   C31  139   2.512   6.334   3.315
    3DOPC   C32  140   1.825   5.857   1.945
    3DOPC   O33  141   1.846   5.749   2.038
    3DOPC   C34  142   1.734   5.684   2.077
    3DOPC   O35  143   1.627   5.701   2.018
    3DOPC   C36  144   1.752   5.586   2.193
    3DOPC   C37  145   1.620   5.533   2.248
    3DOPC   C38  146   1.644   5.460   2.380
    3DOPC   C39  147   1.515   5.396   2.433
    3DOPC   C40  148   1.543   5.328   2.567
    3DOPC   C41  149   1.421   5.251   2.618
    3DOPC   C42  150   1.453   5.189   2.754
    3DOPC   C43  151   1.575   5.099   2.744
    3DOPC   C44  152   1.627   5.039   2.858
    3DOPC   C45  153   1.559   5.065   2.993
    3DOPC   C46  154   1.630   4.993   3.106
    3DOPC   C47  155   1.774   5.042   3.123
    3DOPC   C48  156   1.841   4.973   3.242
    3DOPC   C49  157   1.979   5.031   3.270
    3DOPC   C50  158   2.043   4.964   3.392
    3DOPC   CA1  159   2.181   5.024   3.422
    3DOPC   CA2  160   2.170   5.174   3.452
    3DOPC   CA3  161   2.561   6.201   3.373
    3DOPC   CA4  162   2.705   6.172   3.330
    4DOPC    C1  163   1.807   0.302   1.256
    4DOPC    C2  164   1.982   0.384   1.121
    4DOPC    C3  165   1.965   0.461   1.342
    4DOPC    N4  166   1.886   0.422   1.224
    4DOPC    C5  167   1.802   0.531   1.168
    4DOPC    C6  168   1.682   0.583   1.251
    4DOPC    O7  169   1.719   0.665   1.362
    4DOPC    P8  170   1.620   0.627   1.477
    4DOPC    O9  171   1.486   0.645   1.420
    4DOPC   O10  172   1.673   0.498   1.524
    4DOPC   O11  173   1.659   0.746   1.569
    4DOPC   C12  174   1.727   0.699   1.684
    4DOPC   C13  175   1.758   0.815   1.779
    4DOPC   O14  176   1.835   0.780   1.897
    4DOPC   C15  177   1.957   0.837   1.910
    4DOPC   O16  178   2.004   0.905   1.818
    4DOPC   C17  179   2.033   0.807   2.040
    4DOPC   C18  180   2.101   0.933   2.094
    4DOPC   C19  181   2.157   0.906   2.233
    4DOPC   C20  182   2.219   1.031   2.294
    4DOPC   C21  183   2.256   1.004   2.440
    4DOPC   C22  184   2.309   1.129   2.510
    4DOPC   C23  185   2.331   1.099   2.658
    4DOPC   C24  186   2.379   1.224   2.732
    4DOPC   C25  187   2.396   1.220   2.870
    4DOPC   C26  188   2.369   1.092   2.950
    4DOPC   C27  189   2.390   1.119   3.099
    4DOPC   C28  190   2.369   0.992   3.182
    4DOPC   C29  191   2.385   1.022   3.331
    4DOPC   C30  192   2.366   0.896   3.415
    4DOPC   C31  193   2.377   0.928   3.564
    4DOPC   C32  194   1.622   0.883   1.801
    4DOPC   O33  195   1.515   0.796   1.841
    4DOPC   C34  196   1.393   0.854   1.846
    4DOPC   O35  197   1.368   0.955   1.780
    4DOPC   C36  198   1.287   0.776   1.923
    4DOPC   C37  199   1.339   0.754   2.065
    4DOPC   C38  200   1.261   0.650   2.145
    4DOPC   C39  201   1.334   0.631   2.279
    4DOPC   C40  202   1.274   0.519   2.363
    4DOPC   C41  203   1.359   0.498   2.488
    4DOPC   C42  204   1.312   0.377   2.568
    4DOPC   C43  205   1.408   0.352   2.683
    4DOPC   C44  206   1.395   0.239   2.763
    4DOPC   C45  207   1.282   0.139   2.740
    4DOPC   C46  208   1.307   0.014   2.824
    4DOPC   C47  209   1.320   0.051   2.972
    4DOPC   C48  210   1.358   6.404   3.055
    4DOPC   C49  211   1.372   6.441   3.203
    4DOPC   C50  212   1.409   6.319   3.286
    4DOPC   CA1  213   1.419   6.355   3.434
    4DOPC   CA2  214   1.451   6.231   3.518
    4DOPC   CA3  215   2.514   0.989   3.596
    4DOPC   CA4  216   2.525   1.023   3.745
    5DOPC    C1  217   2.215   4.297   1.254
    5DOPC    C2  218   2.442   4.363   1.282
    5DOPC    C3  219   2.336   4.238   1.451
    5DOPC    N4  220   2.314   4.344   1.352
    5DOPC    C5  221   2.275   4.473   1.414
    5DOPC    C6  222   2.132   4.489   1.469
    5DOPC    O7  223   2.103   4.400   1.577
    5DOPC    P8  224   1.965   4.430   1.643
    5DOPC    O9  225   1.873   4.465   1.532
    5DOPC   O10  226   1.930   4.329   1.743
    5DOPC   O11  227   2.010   4.562   1.715
    5DOPC   C12  228   2.114   4.527   1.807
    5DOPC   C13  229   2.199   4.648   1.848
    5DOPC   O14  230   2.323   4.616   1.918
    5DOPC   C15  231   2.428   4.563   1.851
    5DOPC   O16  232   2.429   4.557   1.728
    5DOPC   C17  233   2.550   4.529   1.936
    5DOPC   C18  234   2.523   4.410   2.029
    5DOPC   C19  235   2.629   4.403   2.139
    5DOPC   C20  236   2.627   4.531   2.222
    5DOPC   C21  237   2.723   4.523   2.341
    5DOPC   C22  238   2.866   4.500   2.295
    5DOPC   C23  239   2.960   4.482   2.414
    5DOPC   C24  240   2.966   4.606   2.502
    5DOPC   C25  241   3.023   4.597   2.628
    5DOPC   C26  242   3.077   4.461   2.674
    5DOPC   C27  243   3.102   4.459   2.825
    5DOPC   C28  244   3.139   4.318   2.871
    5DOPC   C29  245   3.139   4.308   3.024
    5DOPC   C30  246   3.167   4.165   3.069
    5DOPC   C31  247   3.153   4.149   3.220
    5DOPC   C32  248   2.100   4.740   1.923
    5DOPC   O33  249   2.023   4.670   2.022
    5DOPC   C34  250   1.914   4.732   2.070
    5DOPC   O35  251   1.863   4.828   2.011
    5DOPC   C36  252   1.842   4.658   2.182
    5DOPC   C37  253   1.735   4.563   2.127
    5DOPC   C38  254   1.677   4.479   2.241
    5DOPC   C39  255   1.617   4.567   2.350
    5DOPC   C40  256   1.575   4.480   2.469
    5DOPC   C41  257   1.696   4.403   2.522
    5DOPC   C42  258   1.658   4.308   2.635
    5DOPC   C43  259   1.783   4.236   2.687
    5DOPC   C44  260   1.773   4.142   2.788
    5DOPC   C45  261   1.636   4.107   2.847
    5DOPC   C46  262   1.652   4.008   2.962
    5DOPC   C47  263   1.723   3.882   2.913
    5DOPC   C48  264   1.747   3.785   3.029
    5DOPC   C49  265   1.615   3.740   3.093
    5DOPC   C50  266   1.642   3.639   3.204
    5DOPC   CA1  267   1.733   3.699   3.312
    5DOPC   CA2  268   1.760   3.598   3.423
    5DOPC   CA3  269   3.251   4.241   3.294
    5DOPC   CA4  270   3.236   4.224   3.446
    6DOPC    C1  271   2.354   6.198   1.449
    6DOPC    C2  272   2.398   6.199   1.212
    6DOPC    C3  273   2.192   6.274   1.298
    6DOPC    N4  274   2.337   6.273   1.324
    6DOPC    C5  275   2.385   6.414   1.333
    6DOPC    C6  276   2.532   6.437   1.378
    6DOPC    O7  277   2.572   0.098   1.383
    6DOPC    P8  278   2.725   0.104   1.419
    6DOPC    O9  279   2.788   6.456   1.374
    6DOPC   O10  280   2.775   0.237   1.382
    6DOPC   O11  281   2.704   0.099   1.575
    6DOPC   C12  282   2.696   0.233   1.627
    6DOPC   C13  283   2.555   0.284   1.656
    6DOPC   O14  284   2.555   0.424   1.703
    6DOPC   C15  285   2.437   0.488   1.724
    6DOPC   O16  286   2.337   0.456   1.659
    6DOPC   C17  287   2.442   0.614   1.811
    6DOPC   C18  288   2.495   0.578   1.950
    6DOPC   C19  289   2.499   0.698   2.045
    6DOPC   C20  290   2.552   0.652   2.181
    6DOPC   C21  291   2.558   0.764   2.284
    6DOPC   C22  292   2.607   0.705   2.416
    6DOPC   C23  293   2.615   0.807   2.530
    6DOPC   C24  294   2.713   0.921   2.501
    6DOPC   C25  295   2.760   0.996   2.608
    6DOPC   C26  296   2.714   0.960   2.749
    6DOPC   C27  297   2.792   1.035   2.857
    6DOPC   C28  298   2.742   0.993   2.995
    6DOPC   C29  299   2.823   1.058   3.108
    6DOPC   C30  300   2.819   1.211   3.102
    6DOPC   C31  301   2.901   1.269   3.217
    6DOPC   C32  302   2.495   0.181   1.754
    6DOPC   O33  303   2.555   0.177   1.884
    6DOPC   C34  304   2.503   0.083   1.968
    6DOPC   O35  305   2.438   6.464   1.924
    6DOPC   C36  306   2.531   0.097   2.118
    6DOPC   C37  307   2.663   0.166   2.151
    6DOPC   C38  308   2.681   0.178   2.302
    6DOPC   C39  309   2.815   0.243   2.336
    6DOPC   C40  310   2.829   0.265   2.487
    6DOPC   C41  311   2.715   0.353   2.538
    6DOPC   C42  312   2.731   0.389   2.686
    6DOPC   C43  313   2.614   0.477   2.730
    6DOPC   C44  314   2.610   0.537   2.855
    6DOPC   C45  315   2.724   0.521   2.955
    6DOPC   C46  316   2.690   0.599   3.083
    6DOPC   C47  317   2.799   0.584   3.190
    6DOPC   C48  318   2.758   0.659   3.316
    6DOPC   C49  319   2.861   0.640   3.428
    6DOPC   C50  320   2.818   0.714   3.555
    6DOPC   CA1  321   2.918   0.692   3.668
    6DOPC   CA2  322   2.875   0.766   3.794
    6DOPC   CA3  323   2.903   1.422   3.213
    6DOPC   CA4  324   2.984   1.479   3.330
    7DOPC    C1  325   1.702   2.626   1.207
    7DOPC    C2  326   1.858   2.474   1.118
    7DOPC    C3  327   1.904   2.709   1.116
    7DOPC    N4  328   1.846   2.599   1.194
    7DOPC    C5  329   1.903   2.589   1.330
    7DOPC    C6  330   2.057   2.578   1.346
    7DOPC    O7  331   2.114   2.453   1.308
    7DOPC    P8  332   2.269   2.474   1.296
    7DOPC    O9  333   2.324   2.348   1.243
    7DOPC   O10  334   2.287   2.602   1.226
    7DOPC   O11  335   2.300   2.484   1.450
    7DOPC   C12  336   2.318   2.353   1.505
    7DOPC   C13  337   2.378   2.355   1.648
    7DOPC   O14  338   2.422   2.225   1.701
    7DOPC   C15  339   2.338   2.118   1.713
    7DOPC   O16  340   2.221   2.125   1.678
    7DOPC   C17  341   2.397   1.990   1.773
    7DOPC   C18  342   2.353   1.972   1.918
    7DOPC   C19  343   2.389   1.833   1.968
    7DOPC   C20  344   2.349   1.815   2.115
    7DOPC   C21  345   2.384   1.674   2.165
    7DOPC   C22  346   2.350   1.662   2.313
    7DOPC   C23  347   2.430   1.765   2.393
    7DOPC   C24  348   2.393   1.764   2.541
    7DOPC   C25  349   2.457   1.853   2.627
    7DOPC   C26  350   2.565   1.947   2.572
    7DOPC   C27  351   2.610   2.048   2.678
    7DOPC   C28  352   2.723   2.136   2.624
    7DOPC   C29  353   2.761   2.244   2.726
    7DOPC   C30  354   2.803   2.182   2.859
    7DOPC   C31  355   2.840   2.289   2.961
    7DOPC   C32  356   2.279   2.440   1.731
    7DOPC   O33  357   2.319   2.488   1.862
    7DOPC   C34  358   2.425   2.572   1.873
    7DOPC   O35  359   2.494   2.601   1.776
    7DOPC   C36  360   2.451   2.636   2.010
    7DOPC   C37  361   2.429   2.543   2.129
    7DOPC   C38  362   2.469   2.616   2.257
    7DOPC   C39  363   2.450   2.531   2.383
    7DOPC   C40  364   2.502   2.607   2.506
    7DOPC   C41  365   2.485   2.527   2.635
    7DOPC   C42  366   2.546   2.603   2.753
    7DOPC   C43  367   2.696   2.626   2.730
    7DOPC   C44  368   2.773   2.696   2.822
    7DOPC   C45  369   2.711   2.753   2.950
    7DOPC   C46  370   2.812   2.841   3.024
    7DOPC   C47  371   2.751   2.904   3.149
    7DOPC   C48  372   2.725   2.801   3.260
    7DOPC   C49  373   2.856   2.750   3.320
    7DOPC   C50  374   2.830   2.654   3.436
    7DOPC   CA1  375   2.961   2.610   3.502
    7DOPC   CA2  376   2.934   2.518   3.621
    7DOPC   CA3  377   2.879   2.225   3.095
    7DOPC   CA4  378   2.918   2.332   3.197
    8DOPC    C1  379   0.097   5.241   1.513
    8DOPC    C2  380   0.256   5.389   1.422
    8DOPC    C3  381   0.322   5.237   1.589
    8DOPC    N4  382   0.237   5.251   1.470
    8DOPC    C5  383   0.273   5.159   1.359
    8DOPC    C6  384   0.228   5.011   1.366
    8DOPC    O7  385   0.281   4.940   1.477
    8DOPC    P8  386   0.217   4.797   1.484
    8DOPC    O9  387   0.072   4.820   1.466
    8DOPC   O10  388   0.292   4.703   1.398
    8DOPC   O11  389   0.244   4.768   1.635
    8DOPC   C12  390   0.161   4.854   1.712
    8DOPC   C13  391   0.169   4.833   1.864
    8DOPC   O14  392   0.281   4.904   1.928
    8DOPC   C15  393   0.283   5.039   1.936
    8DOPC   O16  394   0.200   5.109   1.878
    8DOPC   C17  395   0.398   5.097   2.018
    8DOPC   C18  396   0.360   5.229   2.084
    8DOPC   C19  397   0.449   5.258   2.206
    8DOPC   C20  398   0.408   5.390   2.271
    8DOPC   C21  399   0.258   5.389   2.299
    8DOPC   C22  400   0.213   5.516   2.371
    8DOPC   C23  401   0.243   5.511   2.521
    8DOPC   C24  402   0.189   5.636   2.589
    8DOPC   C25  403   0.188   5.648   2.728
    8DOPC   C26  404   0.236   5.534   2.817
    8DOPC   C27  405   0.237   5.578   2.963
    8DOPC   C28  406   0.097   5.624   3.007
    8DOPC   C29  407   0.099   5.675   3.151
    8DOPC   C30  408   6.541   5.722   3.193
    8DOPC   C31  409   6.541   5.776   3.336
    8DOPC   C32  410   0.172   4.680   1.882
    8DOPC   O33  411   0.140   4.631   2.013
    8DOPC   C34  412   0.163   4.499   2.033
    8DOPC   O35  413   0.217   4.430   1.947
    8DOPC   C36  414   0.121   4.440   2.168
    8DOPC   C37  415   0.102   4.545   2.278
    8DOPC   C38  416   0.044   4.481   2.405
    8DOPC   C39  417   0.006   4.587   2.508
    8DOPC   C40  418   6.514   4.525   2.626
    8DOPC   C41  419   6.458   4.633   2.719
    8DOPC   C42  420   6.368   4.572   2.826
    8DOPC   C43  421   6.296   4.682   2.905
    8DOPC   C44  422   6.195   4.649   2.995
    8DOPC   C45  423   6.159   4.502   3.020
    8DOPC   C46  424   6.022   4.492   3.087
    8DOPC   C47  425   6.016   4.572   3.217
    8DOPC   C48  426   5.877   4.564   3.280
    8DOPC   C49  427   5.865   4.653   3.404
    8DOPC   C50  428   5.892   4.799   3.368
    8DOPC   CA1  429   5.881   4.889   3.492
    8DOPC   CA2  430   5.741   4.880   3.553
    8DOPC   CA3  431   6.401   5.821   3.377
    8DOPC   CA4  432   6.399   5.878   3.519
    9DOPC    C1  433   1.733   4.920   1.479
    9DOPC    C2  434   1.686   4.753   1.639
    9DOPC    C3  435   1.682   4.979   1.707
    9DOPC    N4  436   1.751   4.883   1.620
    9DOPC    C5  437   1.894   4.870   1.657
    9DOPC    C6  438   1.984   4.995   1.641
    9DOPC    O7  439   2.115   4.971   1.689
    9DOPC    P8  440   2.214   5.060   1.605
    9DOPC    O9  441   2.347   4.997   1.602
    9DOPC   O10  442   2.148   5.109   1.482
    9DOPC   O11  443   2.222   5.185   1.698
    9DOPC   C12  444   2.316   5.163   1.802
    9DOPC   C13  445   2.337   5.289   1.888
    9DOPC   O14  446   2.461   5.291   1.966
    9DOPC   C15  447   2.574   5.340   1.911
    9DOPC   O16  448   2.573   5.398   1.802
    9DOPC   C17  449   2.698   5.341   2.001
    9DOPC   C18  450   2.688   5.454   2.104
    9DOPC   C19  451   2.816   5.468   2.187
    9DOPC   C20  452   2.797   5.577   2.292
    9DOPC   C21  453   2.684   5.537   2.388
    9DOPC   C22  454   2.650   5.649   2.487
    9DOPC   C23  455   2.552   5.593   2.589
    9DOPC   C24  456   2.500   5.697   2.689
    9DOPC   C25  457   2.428   5.648   2.797
    9DOPC   C26  458   2.414   5.496   2.807
    9DOPC   C27  459   2.344   5.447   2.934
    9DOPC   C28  460   2.351   5.294   2.934
    9DOPC   C29  461   2.287   5.231   3.057
    9DOPC   C30  462   2.304   5.079   3.051
    9DOPC   C31  463   2.237   5.021   2.926
    9DOPC   C32  464   2.206   5.312   1.964
    9DOPC   O33  465   2.152   5.199   2.035
    9DOPC   C34  466   2.032   5.223   2.092
    9DOPC   O35  467   1.970   5.327   2.068
    9DOPC   C36  468   1.970   5.111   2.176
    9DOPC   C37  469   1.861   5.166   2.268
    9DOPC   C38  470   1.791   5.058   2.350
    9DOPC   C39  471   1.889   4.983   2.439
    9DOPC   C40  472   1.814   4.890   2.535
    9DOPC   C41  473   1.912   4.806   2.618
    9DOPC   C42  474   1.837   4.724   2.723
    9DOPC   C43  475   1.931   4.623   2.789
    9DOPC   C44  476   1.885   4.543   2.893
    9DOPC   C45  477   1.746   4.564   2.951
    9DOPC   C46  478   1.704   4.442   3.035
    9DOPC   C47  479   1.808   4.411   3.143
    9DOPC   C48  480   1.768   4.286   3.222
    9DOPC   C49  481   1.880   4.245   3.318
    9DOPC   C50  482   1.842   4.121   3.398
    9DOPC   CA1  483   1.719   4.146   3.485
    9DOPC   CA2  484   1.685   4.024   3.570
    9DOPC   CA3  485   2.261   4.870   2.914
    9DOPC   CA4  486   2.206   4.795   3.036
   10DOPC    C1  487   3.042   6.337   1.608
   10DOPC    C2  488   3.084   6.274   1.386
   10DOPC    C3  489   3.248   6.230   1.545
   10DOPC    N4  490   3.102   6.232   1.525
   10DOPC    C5  491   3.039   6.099   1.544
   10DOPC    C6  492   3.016   6.046   1.689
   10DOPC    O7  493   3.135   6.039   1.770
   10DOPC    P8  494   3.189   5.892   1.784
   10DOPC    O9  495   3.159   5.828   1.655
   10DOPC   O10  496   3.328   5.908   1.829
   10DOPC   O11  497   3.096   5.848   1.900
   10DOPC   C12  498   3.124   5.929   2.014
   10DOPC   C13  499   3.037   5.900   2.137
   10DOPC   O14  500   3.094   5.813   2.239
   10DOPC   C15  501   3.188   5.863   2.323
   10DOPC   O16  502   3.252   5.964   2.293
   10DOPC   C17  503   3.215   5.781   2.449
   10DOPC   C18  504   3.133   5.834   2.567
   10DOPC   C19  505   3.118   5.728   2.676
   10DOPC   C20  506   3.039   5.609   2.623
   10DOPC   C21  507   3.022   5.499   2.728
   10DOPC   C22  508   2.942   5.382   2.670
   10DOPC   C23  509   2.925   5.270   2.772
   10DOPC   C24  510   2.854   5.321   2.898
   10DOPC   C25  511   2.824   5.234   3.001
   10DOPC   C26  512   2.858   5.085   2.990
   10DOPC   C27  513   2.818   5.011   3.117
   10DOPC   C28  514   2.895   5.062   3.239
   10DOPC   C29  515   2.847   4.992   3.367
   10DOPC   C30  516   2.928   5.036   3.489
   10DOPC   C31  517   3.075   4.998   3.471
   10DOPC   C32  518   2.899   5.859   2.085
   10DOPC   O33  519   2.814   5.971   2.055
   10DOPC   C34  520   2.688   5.939   2.018
   10DOPC   O35  521   2.655   5.822   1.996
   10DOPC   C36  522   2.590   6.056   2.006
   10DOPC   C37  523   2.584   6.143   2.132
   10DOPC   C38  524   2.528   6.067   2.252
   10DOPC   C39  525   2.523   6.157   2.376
   10DOPC   C40  526   2.464   6.081   2.495
   10DOPC   C41  527   2.460   6.169   2.620
   10DOPC   C42  528   2.401   6.093   2.738
   10DOPC   C43  529   2.401   6.179   2.865
   10DOPC   C44  530   2.348   6.126   2.983
   10DOPC   C45  531   2.290   5.985   2.982
   10DOPC   C46  532   2.234   5.946   3.119
   10DOPC   C47  533   2.172   5.806   3.113
   10DOPC   C48  534   2.112   5.766   3.248
   10DOPC   C49  535   2.219   5.758   3.357
   10DOPC   C50  536   2.156   5.720   3.491
   10DOPC   CA1  537   2.262   5.706   3.601
   10DOPC   CA2  538   2.363   5.596   3.566
   10DOPC   CA3  539   3.158   5.036   3.594
   10DOPC   CA4  540   3.305   4.996   3.574
   11DOPC    C1  541   5.736   6.307   1.355
   11DOPC    C2  542   5.684   6.401   1.572
   11DOPC    C3  543   5.887   6.448   1.467
   11DOPC    N4  544   5.789   6.342   1.488
   11DOPC    C5  545   5.859   6.229   1.554
   11DOPC    C6  546   5.788   6.091   1.565
   11DOPC    O7  547   5.664   6.093   1.636
   11DOPC    P8  548   5.669   5.979   1.742
   11DOPC    O9  549   5.665   5.852   1.667
   11DOPC   O10  550   5.782   6.017   1.828
   11DOPC   O11  551   5.532   6.008   1.811
   11DOPC   C12  552   5.538   6.131   1.882
   11DOPC   C13  553   5.414   6.159   1.970
   11DOPC   O14  554   5.414   6.290   2.036
   11DOPC   C15  555   5.293   6.339   2.076
   11DOPC   O16  556   5.190   6.292   2.029
   11DOPC   C17  557   5.294   6.471   2.154
   11DOPC   C18  558   5.305   6.446   2.304
   11DOPC   C19  559   5.292   0.099   2.384
   11DOPC   C20  560   5.152   0.161   2.370
   11DOPC   C21  561   5.044   0.064   2.420
   11DOPC   C22  562   4.906   0.131   2.423
   11DOPC   C23  563   4.910   0.250   2.519
   11DOPC   C24  564   4.772   0.312   2.540
   11DOPC   C25  565   4.762   0.420   2.627
   11DOPC   C26  566   4.891   0.472   2.691
   11DOPC   C27  567   4.866   0.579   2.798
   11DOPC   C28  568   5.000   0.632   2.848
   11DOPC   C29  569   4.985   0.734   2.960
   11DOPC   C30  570   5.122   0.794   2.994
   11DOPC   C31  571   5.222   0.686   3.033
   11DOPC   C32  572   5.405   6.035   2.060
   11DOPC   O33  573   5.529   5.995   2.121
   11DOPC   C34  574   5.527   5.876   2.184
   11DOPC   O35  575   5.423   5.815   2.204
   11DOPC   C36  576   5.662   5.825   2.236
   11DOPC   C37  577   5.758   5.788   2.123
   11DOPC   C38  578   5.895   5.754   2.180
   11DOPC   C39  579   5.954   5.874   2.255
   11DOPC   C40  580   6.091   5.840   2.313
   11DOPC   C41  581   6.158   5.962   2.377
   11DOPC   C42  582   6.080   6.016   2.498
   11DOPC   C43  583   6.151   6.140   2.553
   11DOPC   C44  584   6.108   6.204   2.669
   11DOPC   C45  585   5.987   6.153   2.748
   11DOPC   C46  586   5.972   6.232   2.879
   11DOPC   C47  587   5.848   6.190   2.957
   11DOPC   C48  588   5.722   6.221   2.877
   11DOPC   C49  589   5.595   6.180   2.951
   11DOPC   C50  590   5.473   6.210   2.865
   11DOPC   CA1  591   5.344   6.166   2.934
   11DOPC   CA2  592   5.223   6.192   2.843
   11DOPC   CA3  593   5.359   0.746   3.062
   11DOPC   CA4  594   5.462   0.638   3.095
   12DOPC    C1  595   2.899   4.911   1.227
   12DOPC    C2  596   2.843   5.039   1.038
   12DOPC    C3  597   3.040   4.911   1.032
   12DOPC    N4  598   2.956   4.993   1.120
   12DOPC    C5  599   3.026   5.114   1.171
   12DOPC    C6  600   3.157   5.098   1.252
   12DOPC    O7  601   3.143   5.029   1.376
   12DOPC    P8  602   3.259   5.067   1.473
   12DOPC    O9  603   3.360   4.960   1.473
   12DOPC   O10  604   3.293   5.207   1.445
   12DOPC   O11  605   3.175   5.055   1.606
   12DOPC   C12  606   3.080   5.161   1.604
   12DOPC   C13  607   2.998   5.182   1.733
   12DOPC   O14  608   3.069   5.259   1.835
   12DOPC   C15  609   3.056   5.394   1.826
   12DOPC   O16  610   2.985   5.442   1.737
   12DOPC   C17  611   3.138   5.482   1.920
   12DOPC   C18  612   3.190   5.408   2.043
   12DOPC   C19  613   3.270   5.505   2.130
   12DOPC   C20  614   3.331   5.434   2.252
   12DOPC   C21  615   3.223   5.375   2.342
   12DOPC   C22  616   3.288   5.313   2.466
   12DOPC   C23  617   3.371   5.418   2.539
   12DOPC   C24  618   3.436   5.363   2.667
   12DOPC   C25  619   3.507   5.449   2.749
   12DOPC   C26  620   3.519   5.597   2.708
   12DOPC   C27  621   3.591   5.680   2.814
   12DOPC   C28  622   3.605   5.824   2.766
   12DOPC   C29  623   3.678   5.914   2.866
   12DOPC   C30  624   3.599   5.927   2.996
   12DOPC   C31  625   3.672   6.021   3.093
   12DOPC   C32  626   2.939   5.046   1.774
   12DOPC   O33  627   2.807   5.057   1.831
   12DOPC   C34  628   2.741   4.942   1.854
   12DOPC   O35  629   2.781   4.835   1.809
   12DOPC   C36  630   2.599   4.960   1.907
   12DOPC   C37  631   2.573   4.886   2.038
   12DOPC   C38  632   2.431   4.915   2.086
   12DOPC   C39  633   2.396   4.831   2.209
   12DOPC   C40  634   2.255   4.863   2.258
   12DOPC   C41  635   2.216   4.775   2.377
   12DOPC   C42  636   2.211   4.627   2.338
   12DOPC   C43  637   2.168   4.543   2.458
   12DOPC   C44  638   2.150   4.406   2.446
   12DOPC   C45  639   2.170   4.335   2.312
   12DOPC   C46  640   2.162   4.183   2.331
   12DOPC   C47  641   2.028   4.142   2.392
   12DOPC   C48  642   2.027   3.994   2.428
   12DOPC   C49  643   2.053   3.906   2.305
   12DOPC   C50  644   2.055   3.757   2.340
   12DOPC   CA1  645   1.920   3.709   2.393
   12DOPC   CA2  646   1.811   3.720   2.286
   12DOPC   CA3  647   3.591   6.039   3.222
   12DOPC   CA4  648   3.569   5.904   3.291
   13DOPC    C1  649   5.962   5.271   1.348
   13DOPC    C2  650   6.095   5.443   1.257
   13DOPC    C3  651   5.867   5.485   1.313
   13DOPC    N4  652   5.989   5.416   1.355
   13DOPC    C5  653   6.022   5.449   1.496
   13DOPC    C6  654   6.084   5.588   1.529
   13DOPC    O7  655   6.223   5.595   1.498
   13DOPC    P8  656   6.279   5.738   1.527
   13DOPC    O9  657   6.419   5.733   1.483
   13DOPC   O10  658   6.182   5.833   1.469
   13DOPC   O11  659   6.273   5.731   1.683
   13DOPC   C12  660   6.374   5.643   1.732
   13DOPC   C13  661   6.375   5.633   1.885
   13DOPC   O14  662   6.269   5.550   1.942
   13DOPC   C15  663   6.291   5.416   1.958
   13DOPC   O16  664   6.387   5.360   1.905
   13DOPC   C17  665   6.182   5.340   2.033
   13DOPC   C18  666   6.214   5.324   2.182
   13DOPC   C19  667   6.095   5.267   2.259
   13DOPC   C20  668   5.977   5.364   2.252
   13DOPC   C21  669   5.857   5.313   2.332
   13DOPC   C22  670   5.744   5.416   2.329
   13DOPC   C23  671   5.622   5.370   2.409
   13DOPC   C24  672   5.510   5.475   2.403
   13DOPC   C25  673   5.387   5.449   2.463
   13DOPC   C26  674   5.363   5.316   2.534
   13DOPC   C27  675   5.217   5.303   2.579
   13DOPC   C28  676   5.192   5.170   2.649
   13DOPC   C29  677   5.044   5.155   2.686
   13DOPC   C30  678   5.018   5.023   2.760
   13DOPC   C31  679   5.088   5.019   2.896
   13DOPC   C32  680   6.378   5.780   1.933
   13DOPC   O33  681   6.383   5.803   2.075
   13DOPC   C34  682   6.491   5.758   2.142
   13DOPC   O35  683   0.012   5.724   2.084
   13DOPC   C36  684   6.480   5.757   2.295
   13DOPC   C37  685   6.420   5.623   2.342
   13DOPC   C38  686   6.420   5.612   2.494
   13DOPC   C39  687   6.375   5.472   2.538
   13DOPC   C40  688   6.460   5.365   2.470
   13DOPC   C41  689   6.433   5.225   2.526
   13DOPC   C42  690   6.488   5.213   2.668
   13DOPC   C43  691   6.462   5.074   2.725
   13DOPC   C44  692   6.512   5.042   2.851
   13DOPC   C45  693   0.014   5.146   2.927
   13DOPC   C46  694   0.036   5.104   3.072
   13DOPC   C47  695   0.121   5.207   3.147
   13DOPC   C48  696   0.125   5.175   3.296
   13DOPC   C49  697   6.565   5.180   3.354
   13DOPC   C50  698   6.563   5.149   3.503
   13DOPC   CA1  699   6.420   5.155   3.557
   13DOPC   CA2  700   6.415   5.124   3.706
   13DOPC   CA3  701   5.035   5.128   2.989
   13DOPC   CA4  702   5.105   5.123   3.126
   14DOPC    C1  703   4.007   1.421   1.651
   14DOPC    C2  704   4.148   1.519   1.818
   14DOPC    C3  705   4.123   1.621   1.608
   14DOPC    N4  706   4.134   1.491   1.674
   14DOPC    C5  707   4.251   1.420   1.617
   14DOPC    C6  708   4.298   1.287   1.682
   14DOPC    O7  709   4.200   1.184   1.678
   14DOPC    P8  710   4.256   1.052   1.740
   14DOPC    O9  711   4.346   1.000   1.636
   14DOPC   O10  712   4.306   1.092   1.872
   14DOPC   O11  713   4.116   0.983   1.742
   14DOPC   C12  714   4.038   1.041   1.847
   14DOPC   C13  715   3.888   1.015   1.829
   14DOPC   O14  716   3.800   1.097   1.913
   14DOPC   C15  717   3.667   1.098   1.887
   14DOPC   O16  718   3.627   1.057   1.778
   14DOPC   C17  719   3.577   1.171   1.987
   14DOPC   C18  720   3.443   1.210   1.925
   14DOPC   C19  721   3.352   1.277   2.029
   14DOPC   C20  722   3.413   1.408   2.079
   14DOPC   C21  723   3.328   1.467   2.191
   14DOPC   C22  724   3.385   1.601   2.239
   14DOPC   C23  725   3.307   1.651   2.361
   14DOPC   C24  726   3.317   1.551   2.476
   14DOPC   C25  727   3.254   1.575   2.597
   14DOPC   C26  728   3.171   1.702   2.618
   14DOPC   C27  729   3.117   1.707   2.761
   14DOPC   C28  730   3.031   1.831   2.784
   14DOPC   C29  731   2.979   1.837   2.927
   14DOPC   C30  732   3.095   1.842   3.028
   14DOPC   C31  733   3.041   1.846   3.171
   14DOPC   C32  734   3.873   0.862   1.837
   14DOPC   O33  735   3.919   0.799   1.958
   14DOPC   C34  736   3.907   0.665   1.959
   14DOPC   O35  737   3.862   0.605   1.861
   14DOPC   C36  738   3.947   0.592   2.087
   14DOPC   C37  739   3.830   0.514   2.147
   14DOPC   C38  740   3.864   0.459   2.285
   14DOPC   C39  741   3.747   0.381   2.344
   14DOPC   C40  742   3.778   0.337   2.487
   14DOPC   C41  743   3.666   0.251   2.546
   14DOPC   C42  744   3.695   0.219   2.693
   14DOPC   C43  745   3.582   0.139   2.758
   14DOPC   C44  746   3.580   0.128   2.896
   14DOPC   C45  747   3.690   0.197   2.977
   14DOPC   C46  748   3.665   0.196   3.127
   14DOPC   C47  749   3.652   0.055   3.183
   14DOPC   C48  750   3.648   0.059   3.336
   14DOPC   C49  751   3.636   6.395   3.396
   14DOPC   C50  752   3.655   6.399   3.547
   14DOPC   CA1  753   3.794   6.455   3.580
   14DOPC   CA2  754   3.820   6.457   3.731
   14DOPC   CA3  755   3.154   1.852   3.273
   14DOPC   CA4  756   3.238   1.978   3.256
   15DOPC    C1  757   5.441   0.635   1.883
   15DOPC    C2  758   5.494   0.673   1.653
   15DOPC    C3  759   5.552   0.828   1.826
   15DOPC    N4  760   5.543   0.686   1.791
   15DOPC    C5  761   5.670   0.614   1.819
   15DOPC    C6  762   5.792   0.632   1.724
   15DOPC    O7  763   5.839   0.766   1.707
   15DOPC    P8  764   5.980   0.766   1.640
   15DOPC    O9  765   5.997   0.638   1.571
   15DOPC   O10  766   6.006   0.896   1.575
   15DOPC   O11  767   6.060   0.765   1.775
   15DOPC   C12  768   6.100   0.892   1.827
   15DOPC   C13  769   5.994   0.979   1.897
   15DOPC   O14  770   6.051   1.100   1.959
   15DOPC   C15  771   5.972   1.185   2.029
   15DOPC   O16  772   5.850   1.191   2.008
   15DOPC   C17  773   6.043   1.286   2.121
   15DOPC   C18  774   6.181   1.234   2.164
   15DOPC   C19  775   6.247   1.326   2.267
   15DOPC   C20  776   6.389   1.278   2.297
   15DOPC   C21  777   6.452   1.357   2.412
   15DOPC   C22  778   0.013   1.310   2.439
   15DOPC   C23  779   0.067   1.370   2.569
   15DOPC   C24  780   0.212   1.328   2.593
   15DOPC   C25  781   0.273   1.355   2.715
   15DOPC   C26  782   0.195   1.421   2.828
   15DOPC   C27  783   0.282   1.437   2.952
   15DOPC   C28  784   0.201   1.488   3.072
   15DOPC   C29  785   0.292   1.502   3.194
   15DOPC   C30  786   0.212   1.540   3.319
   15DOPC   C31  787   0.306   1.552   3.440
   15DOPC   C32  788   5.915   0.885   1.990
   15DOPC   O33  789   5.991   0.793   2.070
   15DOPC   C34  790   5.914   0.699   2.130
   15DOPC   O35  791   5.794   0.691   2.106
   15DOPC   C36  792   5.988   0.595   2.214
   15DOPC   C37  793   6.001   0.643   2.359
   15DOPC   C38  794   6.081   0.545   2.444
   15DOPC   C39  795   6.101   0.603   2.584
   15DOPC   C40  796   5.968   0.618   2.658
   15DOPC   C41  797   5.988   0.704   2.783
   15DOPC   C42  798   6.097   0.648   2.874
   15DOPC   C43  799   6.121   0.745   2.990
   15DOPC   C44  800   6.218   0.720   3.087
   15DOPC   C45  801   6.306   0.595   3.082
   15DOPC   C46  802   6.393   0.591   3.208
   15DOPC   C47  803   6.478   0.463   3.217
   15DOPC   C48  804   6.557   0.463   3.348
   15DOPC   C49  805   0.058   0.335   3.363
   15DOPC   C50  806   0.134   0.336   3.496
   15DOPC   CA1  807   0.217   0.209   3.514
   15DOPC   CA2  808   0.293   0.211   3.647
   15DOPC   CA3  809   0.229   1.581   3.568
   15DOPC   CA4  810   0.131   1.468   3.600
   16DOPC    C1  811   0.990   5.154   1.261
   16DOPC    C2  812   1.087   4.992   1.115
   16DOPC    C3  813   1.206   5.069   1.302
   16DOPC    N4  814   1.072   5.032   1.256
   16DOPC    C5  815   1.019   4.924   1.342
   16DOPC    C6  816   0.895   4.843   1.297
   16DOPC    O7  817   0.783   4.925   1.265
   16DOPC    P8  818   0.647   4.849   1.276
   16DOPC    O9  819   0.549   4.948   1.230
   16DOPC   O10  820   0.659   4.716   1.213
   16DOPC   O11  821   0.649   4.837   1.432
   16DOPC   C12  822   0.592   4.957   1.482
   16DOPC   C13  823   0.622   4.985   1.630
   16DOPC   O14  824   0.743   5.067   1.651
   16DOPC   C15  825   0.736   5.199   1.618
   16DOPC   O16  826   0.637   5.244   1.561
   16DOPC   C17  827   0.863   5.283   1.634
   16DOPC   C18  828   0.849   5.389   1.744
   16DOPC   C19  829   0.872   5.332   1.884
   16DOPC   C20  830   0.852   5.441   1.989
   16DOPC   C21  831   0.899   5.396   2.127
   16DOPC   C22  832   0.827   5.271   2.175
   16DOPC   C23  833   0.872   5.235   2.316
   16DOPC   C24  834   0.802   5.110   2.369
   16DOPC   C25  835   0.828   5.070   2.500
   16DOPC   C26  836   0.924   5.153   2.585
   16DOPC   C27  837   0.941   5.095   2.725
   16DOPC   C28  838   1.036   5.182   2.808
   16DOPC   C29  839   1.053   5.124   2.948
   16DOPC   C30  840   1.146   5.209   3.033
   16DOPC   C31  841   1.160   5.150   3.174
   16DOPC   C32  842   0.616   4.846   1.695
   16DOPC   O33  843   0.602   4.843   1.837
   16DOPC   C34  844   0.575   4.720   1.887
   16DOPC   O35  845   0.560   4.623   1.813
   16DOPC   C36  846   0.552   4.712   2.038
   16DOPC   C37  847   0.682   4.685   2.115
   16DOPC   C38  848   0.652   4.686   2.265
   16DOPC   C39  849   0.778   4.660   2.348
   16DOPC   C40  850   0.744   4.675   2.496
   16DOPC   C41  851   0.865   4.654   2.586
   16DOPC   C42  852   0.828   4.684   2.731
   16DOPC   C43  853   0.945   4.663   2.826
   16DOPC   C44  854   0.936   4.714   2.955
   16DOPC   C45  855   0.808   4.788   2.995
   16DOPC   C46  856   0.827   4.867   3.124
   16DOPC   C47  857   0.700   4.948   3.154
   16DOPC   C48  858   0.664   5.035   3.033
   16DOPC   C49  859   0.539   5.119   3.059
   16DOPC   C50  860   0.500   5.195   2.932
   16DOPC   CA1  861   0.614   5.284   2.884
   16DOPC   CA2  862   0.578   5.354   2.752
   16DOPC   CA3  863   1.215   5.007   3.167
   16DOPC   CA4  864   1.231   4.948   3.308
   17DOPC    C1  865   1.500   5.039   5.675
   17DOPC    C2  866   1.708   4.916   5.678
   17DOPC    C3  867   1.506   4.820   5.754
   17DOPC    N4  868   1.583   4.944   5.751
   17DOPC    C5  869   1.604   4.987   5.891
   17DOPC    C6  870   1.677   5.121   5.918
   17DOPC    O7  871   1.819   5.112   5.912
   17DOPC    P8  872   1.884   5.252   5.942
   17DOPC    O9  873   1.804   5.313   6.050
   17DOPC   O10  874   2.027   5.222   5.955
   17DOPC   O11  875   1.852   5.318   5.804
   17DOPC   C12  876   1.954   5.282   5.711
   17DOPC   C13  877   1.939   5.352   5.575
   17DOPC   O14  878   2.038   5.308   5.477
   17DOPC   C15  879   2.023   5.190   5.413
   17DOPC   O16  880   1.937   5.109   5.448
   17DOPC   C17  881   2.126   5.159   5.304
   17DOPC   C18  882   2.063   5.080   5.188
   17DOPC   C19  883   2.162   5.063   5.073
   17DOPC   C20  884   2.098   4.984   4.958
   17DOPC   C21  885   2.196   4.967   4.842
   17DOPC   C22  886   2.136   4.880   4.732
   17DOPC   C23  887   2.237   4.858   4.619
   17DOPC   C24  888   2.275   4.991   4.553
   17DOPC   C25  889   2.371   4.993   4.452
   17DOPC   C26  890   2.441   4.864   4.410
   17DOPC   C27  891   2.532   4.887   4.290
   17DOPC   C28  892   2.610   4.760   4.254
   17DOPC   C29  893   2.694   4.780   4.129
   17DOPC   C30  894   2.605   4.811   4.008
   17DOPC   C31  895   2.689   4.828   3.881
   17DOPC   C32  896   1.943   5.503   5.608
   17DOPC   O33  897   1.912   5.593   5.500
   17DOPC   C34  898   1.785   5.596   5.456
   17DOPC   O35  899   1.693   5.544   5.521
   17DOPC   C36  900   1.758   5.680   5.331
   17DOPC   C37  901   1.837   5.630   5.209
   17DOPC   C38  902   1.790   5.493   5.160
   17DOPC   C39  903   1.872   5.444   5.041
   17DOPC   C40  904   1.820   5.309   4.994
   17DOPC   C41  905   1.753   5.319   4.856
   17DOPC   C42  906   1.854   5.342   4.744
   17DOPC   C43  907   1.780   5.349   4.610
   17DOPC   C44  908   1.848   5.347   4.489
   17DOPC   C45  909   2.000   5.336   4.481
   17DOPC   C46  910   2.042   5.321   4.335
   17DOPC   C47  911   2.194   5.310   4.316
   17DOPC   C48  912   2.226   5.288   4.168
   17DOPC   C49  913   2.375   5.273   4.142
   17DOPC   C50  914   2.400   5.243   3.994
   17DOPC   CA1  915   2.548   5.227   3.962
   17DOPC   CA2  916   2.626   5.355   3.991
   17DOPC   CA3  917   2.600   4.857   3.760
   17DOPC   CA4  918   2.501   4.743   3.738
   18DOPC    C1  919   5.244   1.459   5.412
   18DOPC    C2  920   5.222   1.230   5.347
   18DOPC    C3  921   5.199   1.402   5.187
   18DOPC    N4  922   5.274   1.362   5.306
   18DOPC    C5  923   5.418   1.361   5.273
   18DOPC    C6  924   5.516   1.304   5.379
   18DOPC    O7  925   5.651   1.331   5.347
   18DOPC    P8  926   5.747   1.238   5.427
   18DOPC    O9  927   5.878   1.300   5.446
   18DOPC   O10  928   5.672   1.173   5.537
   18DOPC   O11  929   5.755   1.130   5.315
   18DOPC   C12  930   5.842   1.176   5.212
   18DOPC   C13  931   5.829   1.090   5.086
   18DOPC   O14  932   5.946   1.088   4.999
   18DOPC   C15  933   6.061   1.031   5.043
   18DOPC   O16  934   6.069   0.981   5.155
   18DOPC   C17  935   6.182   1.043   4.951
   18DOPC   C18  936   6.151   1.016   4.803
   18DOPC   C19  937   6.137   0.868   4.771
   18DOPC   C20  938   6.127   0.851   4.619
   18DOPC   C21  939   6.127   0.704   4.577
   18DOPC   C22  940   6.126   0.695   4.425
   18DOPC   C23  941   6.132   0.550   4.376
   18DOPC   C24  942   6.135   0.546   4.223
   18DOPC   C25  943   6.137   0.424   4.156
   18DOPC   C26  944   6.138   0.293   4.235
   18DOPC   C27  945   6.133   0.174   4.139
   18DOPC   C28  946   6.134   0.040   4.213
   18DOPC   C29  947   6.126   6.401   4.113
   18DOPC   C30  948   6.245   6.405   4.017
   18DOPC   C31  949   6.234   6.297   3.909
   18DOPC   C32  950   5.700   1.140   5.019
   18DOPC   O33  951   5.705   1.280   4.986
   18DOPC   C34  952   5.594   1.331   4.930
   18DOPC   O35  953   5.486   1.272   4.938
   18DOPC   C36  954   5.604   1.473   4.874
   18DOPC   C37  955   5.640   1.472   4.725
   18DOPC   C38  956   5.625   1.613   4.668
   18DOPC   C39  957   5.650   1.615   4.517
   18DOPC   C40  958   5.610   1.751   4.460
   18DOPC   C41  959   5.624   1.754   4.308
   18DOPC   C42  960   5.563   1.884   4.254
   18DOPC   C43  961   5.573   1.893   4.102
   18DOPC   C44  962   5.509   1.998   4.038
   18DOPC   C45  963   5.429   2.097   4.122
   18DOPC   C46  964   5.371   2.211   4.037
   18DOPC   C47  965   5.290   2.306   4.125
   18DOPC   C48  966   5.378   2.361   4.238
   18DOPC   C49  967   5.301   2.457   4.328
   18DOPC   C50  968   5.250   2.578   4.249
   18DOPC   CA1  969   5.176   2.676   4.341
   18DOPC   CA2  970   5.124   2.795   4.262
   18DOPC   CA3  971   6.228   6.157   3.971
   18DOPC   CA4  972   6.213   6.051   3.861
   19DOPC    C1  973   2.369   0.998   5.639
   19DOPC    C2  974   2.257   1.203   5.634
   19DOPC    C3  975   2.456   1.179   5.765
   19DOPC    N4  976   2.391   1.143   5.639
   19DOPC    C5  977   2.470   1.178   5.518
   19DOPC    C6  978   2.535   1.319   5.506
   19DOPC    O7  979   2.444   1.428   5.516
   19DOPC    P8  980   2.518   1.565   5.495
   19DOPC    O9  981   2.454   1.666   5.580
   19DOPC   O10  982   2.663   1.543   5.500
   19DOPC   O11  983   2.476   1.579   5.346
   19DOPC   C12  984   2.578   1.644   5.271
   19DOPC   C13  985   2.561   1.627   5.119
   19DOPC   O14  986   2.648   1.716   5.042
   19DOPC   C15  987   2.775   1.673   5.017
   19DOPC   O16  988   2.817   1.570   5.068
   19DOPC   C17  989   2.861   1.766   4.931
   19DOPC   C18  990   2.928   1.691   4.815
   19DOPC   C19  991   3.011   1.786   4.729
   19DOPC   C20  992   3.086   1.708   4.620
   19DOPC   C21  993   3.181   1.799   4.541
   19DOPC   C22  994   3.107   1.903   4.456
   19DOPC   C23  995   3.029   1.836   4.342
   19DOPC   C24  996   2.960   1.941   4.255
   19DOPC   C25  997   2.890   1.902   4.142
   19DOPC   C26  998   2.884   1.754   4.104
   19DOPC   C27  999   2.800   1.731   3.978
   19DOPC   C28 1000   2.801   1.582   3.941
   19DOPC   C29 1001   2.746   1.498   4.057
   19DOPC   C30 1002   2.754   1.349   4.025
   19DOPC   C31 1003   2.707   1.266   4.145
   19DOPC   C32 1004   2.411   1.648   5.092
   19DOPC   O33 1005   2.367   1.600   4.965
   19DOPC   C34 1006   2.236   1.617   4.936
   19DOPC   O35 1007   2.156   1.651   5.023
   19DOPC   C36 1008   2.193   1.571   4.796
   19DOPC   C37 1009   2.127   1.683   4.715
   19DOPC   C38 1010   2.221   1.802   4.693
   19DOPC   C39 1011   2.153   1.910   4.611
   19DOPC   C40 1012   2.243   2.033   4.597
   19DOPC   C41 1013   2.174   2.137   4.509
   19DOPC   C42 1014   2.258   2.264   4.493
   19DOPC   C43 1015   2.282   2.334   4.626
   19DOPC   C44 1016   2.319   2.468   4.625
   19DOPC   C45 1017   2.329   2.540   4.490
   19DOPC   C46 1018   2.343   2.691   4.505
   19DOPC   C47 1019   2.343   2.756   4.367
   19DOPC   C48 1020   2.347   2.909   4.376
   19DOPC   C49 1021   2.340   2.969   4.235
   19DOPC   C50 1022   2.338   3.122   4.239
   19DOPC   CA1 1023   2.329   3.179   4.098
   19DOPC   CA2 1024   2.322   3.332   4.100
   19DOPC   CA3 1025   2.720   1.116   4.116
   19DOPC   CA4 1026   2.674   1.033   4.237
   20DOPC    C1 1027   4.719   3.651   5.702
   20DOPC    C2 1028   4.877   3.817   5.645
   20DOPC    C3 1029   4.944   3.592   5.644
   20DOPC    N4 1030   4.832   3.681   5.613
   20DOPC    C5 1031   4.795   3.677   5.469
   20DOPC    C6 1032   4.718   3.553   5.416
   20DOPC    O7 1033   4.793   3.432   5.409
   20DOPC    P8 1034   4.698   3.312   5.435
   20DOPC    O9 1035   4.771   3.185   5.419
   20DOPC   O10 1036   4.634   3.343   5.565
   20DOPC   O11 1037   4.599   3.332   5.317
   20DOPC   C12 1038   4.647   3.268   5.200
   20DOPC   C13 1039   4.553   3.288   5.080
   20DOPC   O14 1040   4.587   3.213   4.958
   20DOPC   C15 1041   4.579   3.077   4.953
   20DOPC   O16 1042   4.545   3.009   5.050
   20DOPC   C17 1043   4.624   3.010   4.823
   20DOPC   C18 1044   4.773   3.032   4.797
   20DOPC   C19 1045   4.827   2.939   4.688
   20DOPC   C20 1046   4.837   2.796   4.741
   20DOPC   C21 1047   4.886   2.700   4.632
   20DOPC   C22 1048   4.900   2.558   4.686
   20DOPC   C23 1049   4.934   2.461   4.573
   20DOPC   C24 1050   4.947   2.317   4.621
   20DOPC   C25 1051   4.949   2.216   4.526
   20DOPC   C26 1052   4.936   2.253   4.378
   20DOPC   C27 1053   4.922   2.131   4.288
   20DOPC   C28 1054   4.900   2.175   4.143
   20DOPC   C29 1055   4.877   2.057   4.049
   20DOPC   C30 1056   4.854   2.108   3.907
   20DOPC   C31 1057   4.732   2.202   3.902
   20DOPC   C32 1058   4.548   3.441   5.065
   20DOPC   O33 1059   4.677   3.504   5.043
   20DOPC   C34 1060   4.679   3.638   5.053
   20DOPC   O35 1061   4.605   3.697   5.131
   20DOPC   C36 1062   4.805   3.707   4.998
   20DOPC   C37 1063   4.770   3.823   4.905
   20DOPC   C38 1064   4.703   3.775   4.776
   20DOPC   C39 1065   4.667   3.893   4.685
   20DOPC   C40 1066   4.608   3.845   4.553
   20DOPC   C41 1067   4.572   3.962   4.462
   20DOPC   C42 1068   4.515   3.912   4.329
   20DOPC   C43 1069   4.618   3.827   4.254
   20DOPC   C44 1070   4.583   3.766   4.134
   20DOPC   C45 1071   4.442   3.780   4.078
   20DOPC   C46 1072   4.426   3.696   3.951
   20DOPC   C47 1073   4.282   3.698   3.900
   20DOPC   C48 1074   4.267   3.604   3.780
   20DOPC   C49 1075   4.122   3.594   3.733
   20DOPC   C50 1076   4.109   3.494   3.618
   20DOPC   CA1 1077   3.964   3.480   3.571
   20DOPC   CA2 1078   3.873   3.432   3.684
   20DOPC   CA3 1079   4.718   2.267   3.764
   20DOPC   CA4 1080   4.702   2.161   3.654
   21DOPC    C1 1081   0.208   4.051   5.514
   21DOPC    C2 1082   6.574   4.153   5.541
   21DOPC    C3 1083   0.010   3.934   5.454
   21DOPC    N4 1084   0.074   4.066   5.455
   21DOPC    C5 1085   0.080   4.114   5.315
   21DOPC    C6 1086   0.155   4.247   5.287
   21DOPC    O7 1087   0.075   4.364   5.297
   21DOPC    P8 1088   0.162   4.479   5.357
   21DOPC    O9 1089   0.086   4.604   5.354
   21DOPC   O10 1090   0.217   4.423   5.482
   21DOPC   O11 1091   0.275   4.482   5.249
   21DOPC   C12 1092   0.236   4.568   5.142
   21DOPC   C13 1093   0.338   4.567   5.027
   21DOPC   O14 1094   0.332   4.680   4.934
   21DOPC   C15 1095   0.368   4.802   4.978
   21DOPC   O16 1096   0.407   4.820   5.094
   21DOPC   C17 1097   0.366   4.915   4.875
   21DOPC   C18 1098   0.504   4.930   4.811
   21DOPC   C19 1099   0.512   5.052   4.718
   21DOPC   C20 1100   0.653   5.063   4.662
   21DOPC   C21 1101   0.673   5.189   4.577
   21DOPC   C22 1102   0.815   5.190   4.521
   21DOPC   C23 1103   0.843   5.314   4.436
   21DOPC   C24 1104   0.835   5.442   4.519
   21DOPC   C25 1105   0.865   5.564   4.458
   21DOPC   C26 1106   0.904   5.566   4.310
   21DOPC   C27 1107   0.940   5.708   4.265
   21DOPC   C28 1108   0.968   5.709   4.115
   21DOPC   C29 1109   1.082   5.613   4.079
   21DOPC   C30 1110   1.110   5.614   3.929
   21DOPC   C31 1111   1.219   5.513   3.893
   21DOPC   C32 1112   0.326   4.426   4.967
   21DOPC   O33 1113   0.192   4.385   4.939
   21DOPC   C34 1114   0.174   4.254   4.912
   21DOPC   O35 1115   0.259   4.172   4.947
   21DOPC   C36 1116   0.033   4.212   4.870
   21DOPC   C37 1117   0.018   4.205   4.718
   21DOPC   C38 1118   6.465   4.141   4.681
   21DOPC   C39 1119   6.448   4.130   4.529
   21DOPC   C40 1120   6.316   4.063   4.494
   21DOPC   C41 1121   6.295   4.055   4.342
   21DOPC   C42 1122   6.408   3.978   4.274
   21DOPC   C43 1123   6.381   3.962   4.124
   21DOPC   C44 1124   6.474   3.898   4.043
   21DOPC   C45 1125   0.023   3.847   4.104
   21DOPC   C46 1126   0.112   3.778   4.000
   21DOPC   C47 1127   0.045   3.652   3.944
   21DOPC   C48 1128   0.137   3.583   3.843
   21DOPC   C49 1129   0.075   3.452   3.793
   21DOPC   C50 1130   0.167   3.382   3.692
   21DOPC   CA1 1131   0.189   3.468   3.568
   21DOPC   CA2 1132   0.279   3.397   3.467
   21DOPC   CA3 1133   1.177   5.372   3.932
   21DOPC   CA4 1134   1.285   5.270   3.894
   22DOPC    C1 1135   0.487   0.728   5.453
   22DOPC    C2 1136   0.515   0.654   5.673
   22DOPC    C3 1137   0.706   0.704   5.535
   22DOPC    N4 1138   0.572   0.644   5.538
   22DOPC    C5 1139   0.567   0.505   5.485
   22DOPC    C6 1140   0.651   0.395   5.556
   22DOPC    O7 1141   0.790   0.405   5.525
   22DOPC    P8 1142   0.874   0.307   5.613
   22DOPC    O9 1143   1.014   0.331   5.579
   22DOPC   O10 1144   0.823   0.323   5.751
   22DOPC   O11 1145   0.824   0.173   5.551
   22DOPC   C12 1146   0.888   0.153   5.426
   22DOPC   C13 1147   0.841   0.025   5.357
   22DOPC   O14 1148   0.918   6.464   5.238
   22DOPC   C15 1149   1.045   6.416   5.249
   22DOPC   O16 1150   1.104   6.411   5.357
   22DOPC   C17 1151   1.115   6.387   5.116
   22DOPC   C18 1152   1.071   6.253   5.057
   22DOPC   C19 1153   1.117   6.242   4.912
   22DOPC   C20 1154   1.072   6.111   4.848
   22DOPC   C21 1155   1.107   6.112   4.698
   22DOPC   C22 1156   1.257   6.128   4.676
   22DOPC   C23 1157   1.287   6.149   4.527
   22DOPC   C24 1158   1.437   6.162   4.501
   22DOPC   C25 1159   1.480   6.197   4.373
   22DOPC   C26 1160   1.375   6.226   4.266
   22DOPC   C27 1161   1.439   6.255   4.130
   22DOPC   C28 1162   1.330   6.293   4.029
   22DOPC   C29 1163   1.259   6.422   4.072
   22DOPC   C30 1164   1.139   6.451   3.983
   22DOPC   C31 1165   1.180   6.464   3.836
   22DOPC   C32 1166   0.690   0.045   5.336
   22DOPC   O33 1167   0.653   0.166   5.266
   22DOPC   C34 1168   0.521   0.178   5.235
   22DOPC   O35 1169   0.437   0.102   5.283
   22DOPC   C36 1170   0.479   0.292   5.143
   22DOPC   C37 1171   0.594   0.337   5.052
   22DOPC   C38 1172   0.550   0.437   4.944
   22DOPC   C39 1173   0.460   0.372   4.839
   22DOPC   C40 1174   0.447   0.466   4.719
   22DOPC   C41 1175   0.370   0.401   4.604
   22DOPC   C42 1176   0.380   0.487   4.477
   22DOPC   C43 1177   0.310   0.420   4.359
   22DOPC   C44 1178   0.333   0.466   4.230
   22DOPC   C45 1179   0.428   0.584   4.208
   22DOPC   C46 1180   0.475   0.590   4.063
   22DOPC   C47 1181   0.362   0.614   3.963
   22DOPC   C48 1182   0.416   0.603   3.820
   22DOPC   C49 1183   0.310   0.640   3.716
   22DOPC   C50 1184   0.270   0.787   3.730
   22DOPC   CA1 1185   0.168   0.827   3.623
   22DOPC   CA2 1186   0.133   0.975   3.635
   22DOPC   CA3 1187   1.056   0.011   3.748
   22DOPC   CA4 1188   1.094   0.023   3.601
   23DOPC    C1 1189   1.136   0.649   6.013
   23DOPC    C2 1190   1.138   0.489   5.840
   23DOPC    C3 1191   0.971   0.663   5.844
   23DOPC    N4 1192   1.113   0.632   5.869
   23DOPC    C5 1193   1.207   0.720   5.795
   23DOPC    C6 1194   1.201   0.726   5.640
   23DOPC    O7 1195   1.098   0.809   5.587
   23DOPC    P8 1196   1.104   0.811   5.430
   23DOPC    O9 1197   1.014   0.918   5.383
   23DOPC   O10 1198   1.248   0.815   5.400
   23DOPC   O11 1199   1.048   0.668   5.405
   23DOPC   C12 1200   1.114   0.603   5.296
   23DOPC   C13 1201   1.046   0.470   5.257
   23DOPC   O14 1202   1.106   0.398   5.145
   23DOPC   C15 1203   1.226   0.336   5.155
   23DOPC   O16 1204   1.291   0.339   5.260
   23DOPC   C17 1205   1.275   0.258   5.033
   23DOPC   C18 1206   1.301   0.345   4.909
   23DOPC   C19 1207   1.413   0.446   4.932
   23DOPC   C20 1208   1.362   0.588   4.912
   23DOPC   C21 1209   1.318   0.613   4.767
   23DOPC   C22 1210   1.254   0.752   4.757
   23DOPC   C23 1211   1.226   0.793   4.612
   23DOPC   C24 1212   1.158   0.930   4.611
   23DOPC   C25 1213   1.143   1.001   4.492
   23DOPC   C26 1214   1.195   0.944   4.361
   23DOPC   C27 1215   1.182   1.047   4.249
   23DOPC   C28 1216   1.240   0.995   4.118
   23DOPC   C29 1217   1.235   1.103   4.010
   23DOPC   C30 1218   1.302   1.056   3.881
   23DOPC   C31 1219   1.231   0.934   3.822
   23DOPC   C32 1220   0.900   0.511   5.233
   23DOPC   O33 1221   0.886   0.621   5.142
   23DOPC   C34 1222   0.761   0.672   5.130
   23DOPC   O35 1223   0.671   0.637   5.205
   23DOPC   C36 1224   0.740   0.776   5.019
   23DOPC   C37 1225   0.867   0.857   4.992
   23DOPC   C38 1226   0.848   0.947   4.869
   23DOPC   C39 1227   0.735   1.047   4.889
   23DOPC   C40 1228   0.718   1.130   4.761
   23DOPC   C41 1229   0.849   1.201   4.728
   23DOPC   C42 1230   0.841   1.273   4.593
   23DOPC   C43 1231   0.807   1.175   4.481
   23DOPC   C44 1232   0.827   1.210   4.348
   23DOPC   C45 1233   0.889   1.345   4.312
   23DOPC   C46 1234   0.906   1.354   4.160
   23DOPC   C47 1235   0.976   1.482   4.116
   23DOPC   C48 1236   0.990   1.486   3.964
   23DOPC   C49 1237   1.066   1.610   3.917
   23DOPC   C50 1238   0.995   1.738   3.960
   23DOPC   CA1 1239   1.071   1.861   3.912
   23DOPC   CA2 1240   1.214   1.863   3.968
   23DOPC   CA3 1241   1.303   0.887   3.696
   23DOPC   CA4 1242   1.312   0.999   3.593
   24DOPC    C1 1243   1.550   2.386   5.586
   24DOPC    C2 1244   1.752   2.258   5.574
   24DOPC    C3 1245   1.601   2.227   5.752
   24DOPC    N4 1246   1.660   2.329   5.664
   24DOPC    C5 1247   1.728   2.429   5.751
   24DOPC    C6 1248   1.786   2.560   5.690
   24DOPC    O7 1249   1.887   2.538   5.593
   24DOPC    P8 1250   1.939   2.673   5.533
   24DOPC    O9 1251   1.947   2.770   5.643
   24DOPC   O10 1252   2.053   2.645   5.445
   24DOPC   O11 1253   1.809   2.698   5.450
   24DOPC   C12 1254   1.813   2.617   5.334
   24DOPC   C13 1255   1.673   2.587   5.281
   24DOPC   O14 1256   1.666   2.472   5.191
   24DOPC   C15 1257   1.544   2.419   5.165
   24DOPC   O16 1258   1.446   2.453   5.233
   24DOPC   C17 1259   1.537   2.310   5.058
   24DOPC   C18 1260   1.489   2.366   4.924
   24DOPC   C19 1261   1.487   2.256   4.817
   24DOPC   C20 1262   1.437   2.308   4.682
   24DOPC   C21 1263   1.525   2.423   4.633
   24DOPC   C22 1264   1.485   2.469   4.492
   24DOPC   C23 1265   1.506   2.359   4.388
   24DOPC   C24 1266   1.467   2.410   4.249
   24DOPC   C25 1267   1.485   2.331   4.136
   24DOPC   C26 1268   1.547   2.192   4.149
   24DOPC   C27 1269   1.558   2.124   4.012
   24DOPC   C28 1270   1.648   2.204   3.918
   24DOPC   C29 1271   1.663   2.133   3.783
   24DOPC   C30 1272   1.758   2.210   3.691
   24DOPC   C31 1273   1.774   2.138   3.556
   24DOPC   C32 1274   1.616   2.720   5.229
   24DOPC   O33 1275   1.684   2.781   5.118
   24DOPC   C34 1276   1.629   2.896   5.073
   24DOPC   O35 1277   1.537   2.950   5.135
   24DOPC   C36 1278   1.689   2.954   4.946
   24DOPC   C37 1279   1.641   2.875   4.824
   24DOPC   C38 1280   1.689   2.936   4.692
   24DOPC   C39 1281   1.641   2.851   4.574
   24DOPC   C40 1282   1.684   2.911   4.440
   24DOPC   C41 1283   1.836   2.925   4.431
   24DOPC   C42 1284   1.879   2.963   4.289
   24DOPC   C43 1285   1.838   2.853   4.191
   24DOPC   C44 1286   1.881   2.855   4.059
   24DOPC   C45 1287   1.968   2.970   4.007
   24DOPC   C46 1288   2.030   2.933   3.872
   24DOPC   C47 1289   1.924   2.900   3.767
   24DOPC   C48 1290   1.992   2.853   3.638
   24DOPC   C49 1291   1.892   2.823   3.527
   24DOPC   C50 1292   1.966   2.775   3.401
   24DOPC   CA1 1293   1.868   2.748   3.286
   24DOPC   CA2 1294   1.793   2.875   3.248
   24DOPC   CA3 1295   1.871   2.213   3.464
   24DOPC   CA4 1296   1.823   2.355   3.438
   25DOPC    C1 1297   6.356   1.406   5.281
   25DOPC    C2 1298   6.200   1.246   5.365
   25DOPC    C3 1299   6.159   1.478   5.386
   25DOPC    N4 1300   6.263   1.376   5.390
   25DOPC    C5 1301   6.320   1.383   5.527
   25DOPC    C6 1302   6.458   1.320   5.557
   25DOPC    O7 1303   6.567   1.404   5.522
   25DOPC    P8 1304   0.116   1.319   5.519
   25DOPC    O9 1305   0.233   1.407   5.532
   25DOPC   O10 1306   0.098   1.195   5.596
   25DOPC   O11 1307   0.111   1.279   5.369
   25DOPC   C12 1308   0.226   1.201   5.338
   25DOPC   C13 1309   0.231   1.162   5.189
   25DOPC   O14 1310   0.282   1.265   5.099
   25DOPC   C15 1311   0.416   1.290   5.091
   25DOPC   O16 1312   0.497   1.224   5.156
   25DOPC   C17 1313   0.458   1.396   4.989
   25DOPC   C18 1314   0.414   1.354   4.849
   25DOPC   C19 1315   0.439   1.463   4.744
   25DOPC   C20 1316   0.383   1.418   4.609
   25DOPC   C21 1317   0.397   1.526   4.502
   25DOPC   C22 1318   0.544   1.560   4.474
   25DOPC   C23 1319   0.552   1.667   4.365
   25DOPC   C24 1320   0.697   1.697   4.328
   25DOPC   C25 1321   0.725   1.788   4.227
   25DOPC   C26 1322   0.611   1.860   4.154
   25DOPC   C27 1323   0.666   1.955   4.048
   25DOPC   C28 1324   0.555   2.036   3.981
   25DOPC   C29 1325   0.615   2.135   3.880
   25DOPC   C30 1326   0.713   2.229   3.950
   25DOPC   C31 1327   0.779   2.326   3.851
   25DOPC   C32 1328   0.087   1.121   5.158
   25DOPC   O33 1329   0.047   0.993   5.210
   25DOPC   C34 1330   6.495   0.975   5.199
   25DOPC   O35 1331   6.420   1.072   5.187
   25DOPC   C36 1332   6.444   0.831   5.212
   25DOPC   C37 1333   6.412   0.775   5.073
   25DOPC   C38 1334   6.360   0.632   5.080
   25DOPC   C39 1335   6.321   0.583   4.940
   25DOPC   C40 1336   6.278   0.437   4.940
   25DOPC   C41 1337   6.237   0.393   4.799
   25DOPC   C42 1338   6.221   0.241   4.791
   25DOPC   C43 1339   6.189   0.198   4.648
   25DOPC   C44 1340   6.206   0.065   4.611
   25DOPC   C45 1341   6.259   6.438   4.711
   25DOPC   C46 1342   6.290   6.306   4.642
   25DOPC   C47 1343   6.167   6.250   4.572
   25DOPC   C48 1344   6.203   6.124   4.492
   25DOPC   C49 1345   6.083   6.072   4.414
   25DOPC   C50 1346   6.123   5.953   4.326
   25DOPC   CA1 1347   6.003   5.903   4.245
   25DOPC   CA2 1348   6.043   5.789   4.152
   25DOPC   CA3 1349   0.880   2.415   3.923
   25DOPC   CA4 1350   0.950   2.510   3.825
   26DOPC    C1 1351   0.038   6.293   5.387
   26DOPC    C2 1352   0.150   6.428   5.228
   26DOPC    C3 1353   0.265   6.351   5.421
   26DOPC    N4 1354   0.136   6.401   5.372
   26DOPC    C5 1355   0.083   0.043   5.446
   26DOPC    C6 1356   0.173   0.168   5.462
   26DOPC    O7 1357   0.101   0.278   5.519
   26DOPC    P8 1358   0.193   0.401   5.549
   26DOPC    O9 1359   0.108   0.505   5.609
   26DOPC   O10 1360   0.313   0.354   5.620
   26DOPC   O11 1361   0.231   0.444   5.403
   26DOPC   C12 1362   0.113   0.485   5.335
   26DOPC   C13 1363   0.128   0.512   5.184
   26DOPC   O14 1364   0.148   0.393   5.100
   26DOPC   C15 1365   0.045   0.312   5.070
   26DOPC   O16 1366   6.534   0.293   5.149
   26DOPC   C17 1367   0.067   0.219   4.950
   26DOPC   C18 1368   0.033   0.292   4.820
   26DOPC   C19 1369   0.033   0.195   4.701
   26DOPC   C20 1370   6.579   0.268   4.571
   26DOPC   C21 1371   6.579   0.169   4.454
   26DOPC   C22 1372   6.556   0.238   4.319
   26DOPC   C23 1373   6.571   0.136   4.207
   26DOPC   C24 1374   6.565   0.200   4.068
   26DOPC   C25 1375   0.007   0.120   3.956
   26DOPC   C26 1376   0.040   6.448   3.978
   26DOPC   C27 1377   0.068   6.374   3.848
   26DOPC   C28 1378   0.093   6.226   3.877
   26DOPC   C29 1379   0.124   6.146   3.751
   26DOPC   C30 1380   0.144   5.998   3.786
   26DOPC   C31 1381   0.178   5.914   3.663
   26DOPC   C32 1382   0.240   0.616   5.171
   26DOPC   O33 1383   0.224   0.704   5.058
   26DOPC   C34 1384   0.318   0.799   5.043
   26DOPC   O35 1385   0.407   0.818   5.126
   26DOPC   C36 1386   0.296   0.897   4.927
   26DOPC   C37 1387   0.368   0.855   4.799
   26DOPC   C38 1388   0.343   0.960   4.691
   26DOPC   C39 1389   0.413   0.928   4.559
   26DOPC   C40 1390   0.386   1.041   4.460
   26DOPC   C41 1391   0.463   1.022   4.329
   26DOPC   C42 1392   0.444   1.144   4.239
   26DOPC   C43 1393   0.534   1.137   4.116
   26DOPC   C44 1394   0.548   1.249   4.035
   26DOPC   C45 1395   0.469   1.377   4.066
   26DOPC   C46 1396   0.535   1.499   4.001
   26DOPC   C47 1397   0.551   1.481   3.850
   26DOPC   C48 1398   0.618   1.604   3.789
   26DOPC   C49 1399   0.645   1.583   3.640
   26DOPC   C50 1400   0.707   1.708   3.577
   26DOPC   CA1 1401   0.611   1.827   3.589
   26DOPC   CA2 1402   0.671   1.951   3.524
   26DOPC   CA3 1403   0.309   5.960   3.599
   26DOPC   CA4 1404   0.346   5.870   3.481
   27DOPC    C1 1405   0.824   2.130   5.575
   27DOPC    C2 1406   0.790   2.112   5.337
   27DOPC    C3 1407   0.939   2.269   5.424
   27DOPC    N4 1408   0.810   2.205   5.449
   27DOPC    C5 1409   0.707   2.312   5.457
   27DOPC    C6 1410   0.564   2.275   5.502
   27DOPC    O7 1411   0.496   2.191   5.408
   27DOPC    P8 1412   0.359   2.140   5.464
   27DOPC    O9 1413   0.375   2.127   5.610
   27DOPC   O10 1414   0.254   2.226   5.407
   27DOPC   O11 1415   0.351   1.997   5.400
   27DOPC   C12 1416   0.413   1.997   5.272
   27DOPC   C13 1417   0.370   1.881   5.181
   27DOPC   O14 1418   0.448   1.865   5.059
   27DOPC   C15 1419   0.577   1.825   5.060
   27DOPC   O16 1420   0.634   1.792   5.164
   27DOPC   C17 1421   0.650   1.835   4.925
   27DOPC   C18 1422   0.746   1.719   4.899
   27DOPC   C19 1423   0.815   1.737   4.764
   27DOPC   C20 1424   0.910   1.621   4.735
   27DOPC   C21 1425   1.020   1.610   4.840
   27DOPC   C22 1426   1.108   1.488   4.814
   27DOPC   C23 1427   1.173   1.495   4.676
   27DOPC   C24 1428   1.244   1.364   4.644
   27DOPC   C25 1429   1.307   1.346   4.521
   27DOPC   C26 1430   1.312   1.459   4.419
   27DOPC   C27 1431   1.368   1.408   4.286
   27DOPC   C28 1432   1.385   1.522   4.185
   27DOPC   C29 1433   1.423   1.467   4.048
   27DOPC   C30 1434   1.552   1.384   4.053
   27DOPC   C31 1435   1.581   1.324   3.915
   27DOPC   C32 1436   0.221   1.912   5.159
   27DOPC   O33 1437   0.198   2.042   5.101
   27DOPC   C34 1438   0.071   2.086   5.102
   27DOPC   O35 1439   6.574   2.043   5.187
   27DOPC   C36 1440   0.044   2.213   5.022
   27DOPC   C37 1441   6.487   2.218   4.958
   27DOPC   C38 1442   6.466   2.103   4.858
   27DOPC   C39 1443   6.332   2.116   4.785
   27DOPC   C40 1444   6.315   1.998   4.689
   27DOPC   C41 1445   6.195   2.017   4.596
   27DOPC   C42 1446   6.188   1.898   4.501
   27DOPC   C43 1447   6.086   1.919   4.388
   27DOPC   C44 1448   6.077   1.823   4.289
   27DOPC   C45 1449   6.163   1.697   4.300
   27DOPC   C46 1450   6.173   1.622   4.167
   27DOPC   C47 1451   6.247   1.707   4.064
   27DOPC   C48 1452   6.262   1.634   3.931
   27DOPC   C49 1453   6.341   1.718   3.831
   27DOPC   C50 1454   6.354   1.647   3.696
   27DOPC   CA1 1455   6.216   1.620   3.635
   27DOPC   CA2 1456   6.229   1.548   3.501
   27DOPC   CA3 1457   1.704   1.233   3.918
   27DOPC   CA4 1458   1.725   1.168   3.781
   28DOPC    C1 1459   2.317   2.785   5.699
   28DOPC    C2 1460   2.529   2.796   5.602
   28DOPC    C3 1461   2.342   2.787   5.458
   28DOPC    N4 1462   2.396   2.737   5.585
   28DOPC    C5 1463   2.414   2.590   5.583
   28DOPC    C6 1464   2.289   2.500   5.600
   28DOPC    O7 1465   2.326   2.363   5.596
   28DOPC    P8 1466   2.201   2.277   5.637
   28DOPC    O9 1467   2.246   2.138   5.636
   28DOPC   O10 1468   2.150   2.334   5.762
   28DOPC   O11 1469   2.110   2.308   5.514
   28DOPC   C12 1470   2.132   2.212   5.412
   28DOPC   C13 1471   2.086   2.261   5.274
   28DOPC   O14 1472   2.077   2.156   5.172
   28DOPC   C15 1473   1.966   2.078   5.170
   28DOPC   O16 1474   1.879   2.086   5.257
   28DOPC   C17 1475   1.956   1.975   5.058
   28DOPC   C18 1476   1.872   2.030   4.943
   28DOPC   C19 1477   1.816   1.917   4.856
   28DOPC   C20 1478   1.734   1.976   4.741
   28DOPC   C21 1479   1.660   1.866   4.664
   28DOPC   C22 1480   1.583   1.928   4.547
   28DOPC   C23 1481   1.502   1.822   4.472
   28DOPC   C24 1482   1.436   1.881   4.347
   28DOPC   C25 1483   1.320   1.957   4.349
   28DOPC   C26 1484   1.239   1.983   4.477
   28DOPC   C27 1485   1.126   2.080   4.446
   28DOPC   C28 1486   1.043   2.026   4.329
   28DOPC   C29 1487   0.929   2.121   4.290
   28DOPC   C30 1488   0.824   2.132   4.400
   28DOPC   C31 1489   0.706   2.215   4.351
   28DOPC   C32 1490   2.181   2.378   5.242
   28DOPC   O33 1491   2.320   2.342   5.245
   28DOPC   C34 1492   2.407   2.443   5.223
   28DOPC   O35 1493   2.370   2.559   5.229
   28DOPC   C36 1494   2.556   2.403   5.224
   28DOPC   C37 1495   2.642   2.489   5.130
   28DOPC   C38 1496   2.617   2.455   4.983
   28DOPC   C39 1497   2.652   2.308   4.955
   28DOPC   C40 1498   2.627   2.275   4.808
   28DOPC   C41 1499   2.658   2.128   4.777
   28DOPC   C42 1500   2.628   2.099   4.630
   28DOPC   C43 1501   2.652   1.952   4.594
   28DOPC   C44 1502   2.622   1.909   4.466
   28DOPC   C45 1503   2.565   2.009   4.365
   28DOPC   C46 1504   2.532   1.942   4.232
   28DOPC   C47 1505   2.481   2.044   4.131
   28DOPC   C48 1506   2.453   1.979   3.996
   28DOPC   C49 1507   2.405   2.083   3.894
   28DOPC   C50 1508   2.378   2.019   3.758
   28DOPC   CA1 1509   2.333   2.125   3.657
   28DOPC   CA2 1510   2.206   2.195   3.706
   28DOPC   CA3 1511   0.592   2.217   4.453
   28DOPC   CA4 1512   0.472   2.294   4.397
   29DOPC    C1 1513   5.382   0.223   5.287
   29DOPC    C2 1514   5.328   0.006   5.215
   29DOPC    C3 1515   5.541   0.089   5.162
   29DOPC    N4 1516   5.438   0.088   5.267
   29DOPC    C5 1517   5.486   0.025   5.392
   29DOPC    C6 1518   5.574   0.110   5.488
   29DOPC    O7 1519   5.689   0.166   5.426
   29DOPC    P8 1520   5.769   0.254   5.526
   29DOPC    O9 1521   5.698   0.383   5.526
   29DOPC   O10 1522   5.778   0.172   5.648
   29DOPC   O11 1523   5.905   0.259   5.449
   29DOPC   C12 1524   5.878   0.312   5.319
   29DOPC   C13 1525   6.003   0.343   5.235
   29DOPC   O14 1526   5.973   0.428   5.120
   29DOPC   C15 1527   5.963   0.561   5.141
   29DOPC   O16 1528   5.988   0.609   5.251
   29DOPC   C17 1529   5.912   0.647   5.025
   29DOPC   C18 1530   5.759   0.651   5.027
   29DOPC   C19 1531   5.705   0.756   4.931
   29DOPC   C20 1532   5.746   0.729   4.786
   29DOPC   C21 1533   5.695   0.841   4.696
   29DOPC   C22 1534   5.733   0.818   4.550
   29DOPC   C23 1535   5.684   0.935   4.464
   29DOPC   C24 1536   5.748   1.067   4.509
   29DOPC   C25 1537   5.708   1.189   4.455
   29DOPC   C26 1538   5.600   1.200   4.347
   29DOPC   C27 1539   5.653   1.169   4.206
   29DOPC   C28 1540   5.538   1.165   4.106
   29DOPC   C29 1541   5.589   1.128   3.967
   29DOPC   C30 1542   5.473   1.109   3.869
   29DOPC   C31 1543   5.389   1.237   3.855
   29DOPC   C32 1544   6.071   0.209   5.201
   29DOPC   O33 1545   5.990   0.117   5.126
   29DOPC   C34 1546   6.059   0.015   5.069
   29DOPC   O35 1547   6.181   0.009   5.079
   29DOPC   C36 1548   5.983   6.400   4.972
   29DOPC   C37 1549   5.835   6.383   5.004
   29DOPC   C38 1550   5.767   6.299   4.895
   29DOPC   C39 1551   5.832   6.162   4.886
   29DOPC   C40 1552   5.775   6.079   4.771
   29DOPC   C41 1553   5.846   5.944   4.764
   29DOPC   C42 1554   5.804   5.861   4.642
   29DOPC   C43 1555   5.655   5.827   4.642
   29DOPC   C44 1556   5.606   5.746   4.540
   29DOPC   C45 1557   5.703   5.695   4.434
   29DOPC   C46 1558   5.635   5.609   4.327
   29DOPC   C47 1559   5.738   5.566   4.223
   29DOPC   C48 1560   5.676   5.483   4.110
   29DOPC   C49 1561   5.782   5.450   4.004
   29DOPC   C50 1562   5.724   5.369   3.889
   29DOPC   CA1 1563   5.681   5.229   3.932
   29DOPC   CA2 1564   5.801   5.146   3.978
   29DOPC   CA3 1565   5.274   1.214   3.758
   29DOPC   CA4 1566   5.326   1.170   3.621
   30DOPC    C1 1567   5.695   0.720   5.640
   30DOPC    C2 1568   5.918   0.673   5.581
   30DOPC    C3 1569   5.854   0.898   5.604
   30DOPC    N4 1570   5.808   0.767   5.558
   30DOPC    C5 1571   5.782   0.768   5.412
   30DOPC    C6 1572   5.657   0.840   5.355
   30DOPC    O7 1573   5.541   0.757   5.351
   30DOPC    P8 1574   5.423   0.846   5.298
   30DOPC    O9 1575   5.377   0.911   5.422
   30DOPC   O10 1576   5.477   0.923   5.185
   30DOPC   O11 1577   5.329   0.730   5.253
   30DOPC   C12 1578   5.384   0.668   5.137
   30DOPC   C13 1579   5.299   0.552   5.084
   30DOPC   O14 1580   5.371   0.470   4.987
   30DOPC   C15 1581   5.317   0.356   4.939
   30DOPC   O16 1582   5.234   0.294   5.005
   30DOPC   C17 1583   5.394   0.291   4.823
   30DOPC   C18 1584   5.394   0.382   4.700
   30DOPC   C19 1585   5.266   0.368   4.617
   30DOPC   C20 1586   5.266   0.470   4.503
   30DOPC   C21 1587   5.159   0.438   4.399
   30DOPC   C22 1588   5.191   0.305   4.329
   30DOPC   C23 1589   5.096   0.280   4.212
   30DOPC   C24 1590   4.952   0.255   4.254
   30DOPC   C25 1591   4.852   0.261   4.158
   30DOPC   C26 1592   4.892   0.302   4.016
   30DOPC   C27 1593   4.772   0.315   3.923
   30DOPC   C28 1594   4.815   0.379   3.791
   30DOPC   C29 1595   4.698   0.399   3.695
   30DOPC   C30 1596   4.740   0.481   3.574
   30DOPC   C31 1597   4.853   0.413   3.497
   30DOPC   C32 1598   5.169   0.617   5.035
   30DOPC   O33 1599   5.191   0.727   4.945
   30DOPC   C34 1600   5.082   0.788   4.895
   30DOPC   O35 1601   4.969   0.754   4.930
   30DOPC   C36 1602   5.108   0.908   4.803
   30DOPC   C37 1603   5.173   0.867   4.671
   30DOPC   C38 1604   5.221   0.992   4.596
   30DOPC   C39 1605   5.287   0.958   4.462
   30DOPC   C40 1606   5.188   0.894   4.365
   30DOPC   C41 1607   5.253   0.873   4.228
   30DOPC   C42 1608   5.370   0.774   4.235
   30DOPC   C43 1609   5.444   0.769   4.101
   30DOPC   C44 1610   5.544   0.676   4.078
   30DOPC   C45 1611   5.577   0.570   4.184
   30DOPC   C46 1612   5.693   0.482   4.138
   30DOPC   C47 1613   5.716   0.366   4.235
   30DOPC   C48 1614   5.743   0.417   4.376
   30DOPC   C49 1615   5.762   0.299   4.472
   30DOPC   C50 1616   5.782   0.348   4.615
   30DOPC   CA1 1617   5.793   0.230   4.712
   30DOPC   CA2 1618   5.805   0.280   4.856
   30DOPC   CA3 1619   4.903   0.503   3.382
   30DOPC   CA4 1620   4.790   0.535   3.284
   31DOPC    C1 1621   0.807   3.261   5.771
   31DOPC    C2 1622   0.824   3.029   5.809
   31DOPC    C3 1623   0.615   3.144   5.836
   31DOPC    N4 1624   0.736   3.133   5.754
   31DOPC    C5 1625   0.703   3.119   5.610
   31DOPC    C6 1626   0.653   2.982   5.558
   31DOPC    O7 1627   0.758   2.888   5.539
   31DOPC    P8 1628   0.698   2.745   5.519
   31DOPC    O9 1629   0.808   2.647   5.514
   31DOPC   O10 1630   0.589   2.728   5.617
   31DOPC   O11 1631   0.639   2.756   5.374
   31DOPC   C12 1632   0.741   2.773   5.276
   31DOPC   C13 1633   0.787   2.643   5.208
   31DOPC   O14 1634   0.886   2.669   5.104
   31DOPC   C15 1635   0.994   2.587   5.098
   31DOPC   O16 1636   1.021   2.512   5.192
   31DOPC   C17 1637   1.086   2.604   4.977
   31DOPC   C18 1638   1.196   2.708   5.000
   31DOPC   C19 1639   1.279   2.721   4.872
   31DOPC   C20 1640   1.189   2.758   4.755
   31DOPC   C21 1641   1.267   2.761   4.623
   31DOPC   C22 1642   1.174   2.788   4.505
   31DOPC   C23 1643   1.249   2.779   4.372
   31DOPC   C24 1644   1.154   2.796   4.254
   31DOPC   C25 1645   1.201   2.780   4.124
   31DOPC   C26 1646   1.349   2.749   4.099
   31DOPC   C27 1647   1.371   2.702   3.954
   31DOPC   C28 1648   1.519   2.675   3.927
   31DOPC   C29 1649   1.537   2.611   3.789
   31DOPC   C30 1650   1.480   2.699   3.678
   31DOPC   C31 1651   1.493   2.631   3.542
   31DOPC   C32 1652   0.657   2.579   5.158
   31DOPC   O33 1653   0.660   2.440   5.121
   31DOPC   C34 1654   0.539   2.396   5.078
   31DOPC   O35 1655   0.436   2.453   5.114
   31DOPC   C36 1656   0.534   2.258   5.012
   31DOPC   C37 1657   0.436   2.260   4.894
   31DOPC   C38 1658   0.411   2.120   4.838
   31DOPC   C39 1659   0.313   2.125   4.720
   31DOPC   C40 1660   0.278   1.985   4.668
   31DOPC   C41 1661   0.194   1.998   4.541
   31DOPC   C42 1662   0.147   1.864   4.486
   31DOPC   C43 1663   0.051   1.795   4.583
   31DOPC   C44 1664   6.575   1.672   4.551
   31DOPC   C45 1665   0.023   1.605   4.417
   31DOPC   C46 1666   6.549   1.463   4.415
   31DOPC   C47 1667   6.577   1.393   4.282
   31DOPC   C48 1668   6.529   1.248   4.287
   31DOPC   C49 1669   6.550   1.177   4.153
   31DOPC   C50 1670   6.468   1.245   4.043
   31DOPC   CA1 1671   6.483   1.172   3.909
   31DOPC   CA2 1672   6.399   1.239   3.800
   31DOPC   CA3 1673   1.432   2.717   3.431
   31DOPC   CA4 1674   1.445   2.648   3.295
   32DOPC    C1 1675   0.050   2.714   5.498
   32DOPC    C2 1676   0.191   2.534   5.559
   32DOPC    C3 1677   0.215   2.736   5.671
   32DOPC    N4 1678   0.187   2.679   5.539
   32DOPC    C5 1679   0.291   2.717   5.439
   32DOPC    C6 1680   0.297   2.864   5.390
   32DOPC    O7 1681   0.333   2.957   5.491
   32DOPC    P8 1682   0.321   3.103   5.437
   32DOPC    O9 1683   0.196   3.111   5.360
   32DOPC   O10 1684   0.356   3.196   5.546
   32DOPC   O11 1685   0.440   3.097   5.337
   32DOPC   C12 1686   0.416   3.187   5.229
   32DOPC   C13 1687   0.519   3.171   5.117
   32DOPC   O14 1688   0.509   3.268   5.009
   32DOPC   C15 1689   0.559   3.393   5.024
   32DOPC   O16 1690   0.616   3.427   5.128
   32DOPC   C17 1691   0.545   3.486   4.903
   32DOPC   C18 1692   0.559   3.407   4.772
   32DOPC   C19 1693   0.531   3.495   4.650
   32DOPC   C20 1694   0.557   3.416   4.522
   32DOPC   C21 1695   0.537   3.502   4.396
   32DOPC   C22 1696   0.589   3.426   4.275
   32DOPC   C23 1697   0.574   3.505   4.145
   32DOPC   C24 1698   0.643   3.429   4.031
   32DOPC   C25 1699   0.634   3.474   3.900
   32DOPC   C26 1700   0.552   3.598   3.866
   32DOPC   C27 1701   0.559   3.623   3.715
   32DOPC   C28 1702   0.469   3.739   3.671
   32DOPC   C29 1703   0.475   3.751   3.519
   32DOPC   C30 1704   0.372   3.850   3.464
   32DOPC   C31 1705   0.375   3.845   3.312
   32DOPC   C32 1706   0.508   3.024   5.073
   32DOPC   O33 1707   0.375   2.979   5.039
   32DOPC   C34 1708   0.368   2.849   5.004
   32DOPC   O35 1709   0.463   2.774   5.026
   32DOPC   C36 1710   0.233   2.797   4.954
   32DOPC   C37 1711   0.250   2.677   4.859
   32DOPC   C38 1712   0.119   2.630   4.796
   32DOPC   C39 1713   0.149   2.516   4.699
   32DOPC   C40 1714   0.028   2.473   4.614
   32DOPC   C41 1715   0.078   2.373   4.509
   32DOPC   C42 1716   6.554   2.327   4.408
   32DOPC   C43 1717   0.043   2.237   4.307
   32DOPC   C44 1718   6.563   2.180   4.196
   32DOPC   C45 1719   6.415   2.200   4.163
   32DOPC   C46 1720   6.389   2.141   4.024
   32DOPC   C47 1721   6.241   2.147   3.983
   32DOPC   C48 1722   6.226   2.096   3.839
   32DOPC   C49 1723   6.080   2.089   3.796
   32DOPC   C50 1724   6.003   1.989   3.883
   32DOPC   CA1 1725   5.857   1.979   3.838
   32DOPC   CA2 1726   5.846   1.933   3.693
   32DOPC   CA3 1727   0.267   3.934   3.249
   32DOPC   CA4 1728   0.272   3.923   3.097
   33DOPC    C1 1729   3.042   3.563   1.582
   33DOPC    C2 1730   3.204   3.744   1.593
   33DOPC    C3 1731   3.031   3.749   1.435
   33DOPC    N4 1732   3.123   3.658   1.505
   33DOPC    C5 1733   3.209   3.594   1.402
   33DOPC    C6 1734   3.287   3.465   1.438
   33DOPC    O7 1735   3.347   3.468   1.567
   33DOPC    P8 1736   3.474   3.378   1.581
   33DOPC    O9 1737   3.485   3.297   1.458
   33DOPC   O10 1738   3.579   3.474   1.616
   33DOPC   O11 1739   3.434   3.284   1.699
   33DOPC   C12 1740   3.345   3.340   1.795
   33DOPC   C13 1741   3.342   3.251   1.921
   33DOPC   O14 1742   3.241   3.278   2.023
   33DOPC   C15 1743   3.109   3.252   2.006
   33DOPC   O16 1744   3.056   3.254   1.895
   33DOPC   C17 1745   3.025   3.254   2.134
   33DOPC   C18 1746   3.056   3.134   2.224
   33DOPC   C19 1747   2.966   3.135   2.347
   33DOPC   C20 1748   2.989   3.012   2.436
   33DOPC   C21 1749   2.889   3.011   2.552
   33DOPC   C22 1750   2.904   3.135   2.640
   33DOPC   C23 1751   2.796   3.140   2.747
   33DOPC   C24 1752   2.815   3.261   2.839
   33DOPC   C25 1753   2.720   3.291   2.936
   33DOPC   C26 1754   2.593   3.206   2.949
   33DOPC   C27 1755   2.500   3.263   3.056
   33DOPC   C28 1756   2.567   3.262   3.194
   33DOPC   C29 1757   2.473   3.318   3.301
   33DOPC   C30 1758   2.344   3.236   3.307
   33DOPC   C31 1759   2.249   3.288   3.414
   33DOPC   C32 1760   3.487   3.262   1.972
   33DOPC   O33 1761   3.528   3.398   1.998
   33DOPC   C34 1762   3.658   3.417   2.028
   33DOPC   O35 1763   3.740   3.327   2.011
   33DOPC   C36 1764   3.701   3.558   2.072
   33DOPC   C37 1765   3.586   3.659   2.079
   33DOPC   C38 1766   3.639   3.795   2.125
   33DOPC   C39 1767   3.527   3.899   2.132
   33DOPC   C40 1768   3.584   4.033   2.178
   33DOPC   C41 1769   3.476   4.141   2.188
   33DOPC   C42 1770   3.536   4.269   2.245
   33DOPC   C43 1771   3.432   4.379   2.266
   33DOPC   C44 1772   3.470   4.493   2.335
   33DOPC   C45 1773   3.615   4.503   2.384
   33DOPC   C46 1774   3.634   4.618   2.483
   33DOPC   C47 1775   3.779   4.623   2.532
   33DOPC   C48 1776   3.795   4.723   2.646
   33DOPC   C49 1777   3.705   4.684   2.764
   33DOPC   C50 1778   3.729   4.776   2.884
   33DOPC   CA1 1779   3.703   4.923   2.850
   33DOPC   CA2 1780   3.729   5.012   2.971
   33DOPC   CA3 1781   2.119   3.207   3.415
   33DOPC   CA4 1782   2.022   3.260   3.522
   34DOPC    C1 1783   1.486   4.054   1.645
   34DOPC    C2 1784   1.622   4.194   1.785
   34DOPC    C3 1785   1.588   4.247   1.557
   34DOPC    N4 1786   1.607   4.136   1.651
   34DOPC    C5 1787   1.728   4.061   1.609
   34DOPC    C6 1788   1.787   3.954   1.704
   34DOPC    O7 1789   1.707   3.836   1.725
   34DOPC    P8 1790   1.795   3.739   1.812
   34DOPC    O9 1791   1.905   3.710   1.719
   34DOPC   O10 1792   1.808   3.816   1.936
   34DOPC   O11 1793   1.687   3.626   1.820
   34DOPC   C12 1794   1.582   3.670   1.905
   34DOPC   C13 1795   1.455   3.584   1.892
   34DOPC   O14 1796   1.333   3.647   1.940
   34DOPC   C15 1797   1.269   3.734   1.857
   34DOPC   O16 1798   1.317   3.762   1.746
   34DOPC   C17 1799   1.141   3.799   1.910
   34DOPC   C18 1800   1.163   3.940   1.967
   34DOPC   C19 1801   1.259   3.939   2.086
   34DOPC   C20 1802   1.264   4.075   2.155
   34DOPC   C21 1803   1.362   4.071   2.272
   34DOPC   C22 1804   1.349   4.196   2.359
   34DOPC   C23 1805   1.206   4.205   2.414
   34DOPC   C24 1806   1.190   4.320   2.513
   34DOPC   C25 1807   1.065   4.339   2.572
   34DOPC   C26 1808   0.950   4.246   2.533
   34DOPC   C27 1809   0.823   4.275   2.613
   34DOPC   C28 1810   0.843   4.249   2.762
   34DOPC   C29 1811   0.713   4.276   2.838
   34DOPC   C30 1812   0.726   4.242   2.987
   34DOPC   C31 1813   0.594   4.271   3.060
   34DOPC   C32 1814   1.488   3.446   1.951
   34DOPC   O33 1815   1.568   3.447   2.070
   34DOPC   C34 1816   1.591   3.326   2.124
   34DOPC   O35 1817   1.541   3.224   2.075
   34DOPC   C36 1818   1.687   3.320   2.243
   34DOPC   C37 1819   1.830   3.296   2.196
   34DOPC   C38 1820   1.927   3.295   2.314
   34DOPC   C39 1821   1.889   3.185   2.413
   34DOPC   C40 1822   1.985   3.180   2.531
   34DOPC   C41 1823   1.944   3.067   2.626
   34DOPC   C42 1824   2.039   3.053   2.745
   34DOPC   C43 1825   1.995   2.936   2.832
   34DOPC   C44 1826   2.067   2.902   2.946
   34DOPC   C45 1827   2.190   2.982   2.988
   34DOPC   C46 1828   2.253   2.919   3.113
   34DOPC   C47 1829   2.298   2.776   3.083
   34DOPC   C48 1830   2.352   2.708   3.208
   34DOPC   C49 1831   2.403   2.568   3.175
   34DOPC   C50 1832   2.291   2.482   3.115
   34DOPC   CA1 1833   2.342   2.343   3.078
   34DOPC   CA2 1834   2.231   2.258   3.017
   34DOPC   CA3 1835   0.603   4.233   3.208
   34DOPC   CA4 1836   0.474   4.269   3.281
   35DOPC    C1 1837   1.064   2.710   1.803
   35DOPC    C2 1838   1.050   2.669   1.571
   35DOPC    C3 1839   1.239   2.781   1.661
   35DOPC    N4 1840   1.093   2.768   1.672
   35DOPC    C5 1841   1.032   2.902   1.655
   35DOPC    C6 1842   0.878   2.912   1.631
   35DOPC    O7 1843   0.797   2.871   1.741
   35DOPC    P8 1844   0.649   2.848   1.697
   35DOPC    O9 1845   0.560   2.946   1.765
   35DOPC   O10 1846   0.644   2.834   1.550
   35DOPC   O11 1847   0.625   2.707   1.758
   35DOPC   C12 1848   0.603   2.721   1.898
   35DOPC   C13 1849   0.555   2.592   1.965
   35DOPC   O14 1850   0.461   2.616   2.076
   35DOPC   C15 1851   0.405   2.512   2.144
   35DOPC   O16 1852   0.396   2.401   2.090
   35DOPC   C17 1853   0.323   2.549   2.267
   35DOPC   C18 1854   0.350   2.451   2.382
   35DOPC   C19 1855   0.249   2.469   2.495
   35DOPC   C20 1856   0.276   2.368   2.607
   35DOPC   C21 1857   0.162   2.366   2.709
   35DOPC   C22 1858   0.189   2.262   2.817
   35DOPC   C23 1859   0.068   2.242   2.908
   35DOPC   C24 1860   0.027   2.372   2.978
   35DOPC   C25 1861   6.501   2.371   3.066
   35DOPC   C26 1862   6.426   2.239   3.089
   35DOPC   C27 1863   6.314   2.256   3.192
   35DOPC   C28 1864   6.242   2.124   3.217
   35DOPC   C29 1865   6.135   2.139   3.325
   35DOPC   C30 1866   6.066   2.005   3.353
   35DOPC   C31 1867   5.997   1.952   3.228
   35DOPC   C32 1868   0.681   2.507   1.990
   35DOPC   O33 1869   0.786   2.573   2.062
   35DOPC   C34 1870   0.900   2.502   2.080
   35DOPC   O35 1871   0.920   2.401   2.013
   35DOPC   C36 1872   1.013   2.573   2.154
   35DOPC   C37 1873   1.102   2.479   2.235
   35DOPC   C38 1874   1.225   2.555   2.284
   35DOPC   C39 1875   1.317   2.470   2.373
   35DOPC   C40 1876   1.251   2.437   2.507
   35DOPC   C41 1877   1.213   2.565   2.581
   35DOPC   C42 1878   1.157   2.535   2.720
   35DOPC   C43 1879   1.263   2.468   2.807
   35DOPC   C44 1880   1.239   2.441   2.941
   35DOPC   C45 1881   1.103   2.474   3.004
   35DOPC   C46 1882   1.113   2.462   3.157
   35DOPC   C47 1883   0.978   2.486   3.225
   35DOPC   C48 1884   0.995   2.494   3.377
   35DOPC   C49 1885   1.054   2.365   3.435
   35DOPC   C50 1886   0.959   2.246   3.418
   35DOPC   CA1 1887   1.023   2.119   3.475
   35DOPC   CA2 1888   1.056   2.136   3.623
   35DOPC   CA3 1889   5.926   1.819   3.257
   35DOPC   CA4 1890   5.856   1.766   3.132
   36DOPC    C1 1891   0.620   3.452   1.559
   36DOPC    C2 1892   0.478   3.283   1.644
   36DOPC    C3 1893   0.575   3.437   1.793
   36DOPC    N4 1894   0.600   3.359   1.671
   36DOPC    C5 1895   0.713   3.263   1.683
   36DOPC    C6 1896   0.852   3.322   1.715
   36DOPC    O7 1897   0.961   3.233   1.693
   36DOPC    P8 1898   1.092   3.317   1.714
   36DOPC    O9 1899   1.205   3.232   1.672
   36DOPC   O10 1900   1.066   3.452   1.659
   36DOPC   O11 1901   1.083   3.323   1.869
   36DOPC   C12 1902   1.143   3.211   1.932
   36DOPC   C13 1903   1.095   3.195   2.078
   36DOPC   O14 1904   0.966   3.127   2.094
   36DOPC   C15 1905   0.959   2.992   2.084
   36DOPC   O16 1906   1.056   2.925   2.050
   36DOPC   C17 1907   0.822   2.932   2.116
   36DOPC   C18 1908   0.816   2.876   2.259
   36DOPC   C19 1909   0.675   2.829   2.292
   36DOPC   C20 1910   0.670   2.746   2.420
   36DOPC   C21 1911   0.720   2.822   2.543
   36DOPC   C22 1912   0.705   2.731   2.666
   36DOPC   C23 1913   0.749   2.797   2.797
   36DOPC   C24 1914   0.898   2.831   2.798
   36DOPC   C25 1915   0.957   2.867   2.919
   36DOPC   C26 1916   0.871   2.872   3.045
   36DOPC   C27 1917   0.954   2.889   3.173
   36DOPC   C28 1918   0.861   2.892   3.294
   36DOPC   C29 1919   0.939   2.890   3.427
   36DOPC   C30 1920   1.032   3.010   3.442
   36DOPC   C31 1921   1.104   3.004   3.577
   36DOPC   C32 1922   1.089   3.338   2.134
   36DOPC   O33 1923   1.212   3.398   2.177
   36DOPC   C34 1924   1.193   3.526   2.218
   36DOPC   O35 1925   1.085   3.582   2.203
   36DOPC   C36 1926   1.310   3.590   2.294
   36DOPC   C37 1927   1.361   3.497   2.404
   36DOPC   C38 1928   1.479   3.557   2.481
   36DOPC   C39 1929   1.531   3.456   2.584
   36DOPC   C40 1930   1.651   3.511   2.662
   36DOPC   C41 1931   1.704   3.405   2.759
   36DOPC   C42 1932   1.821   3.459   2.842
   36DOPC   C43 1933   1.873   3.352   2.939
   36DOPC   C44 1934   1.969   3.384   3.034
   36DOPC   C45 1935   2.023   3.527   3.045
   36DOPC   C46 1936   2.119   3.541   3.163
   36DOPC   C47 1937   2.170   3.684   3.179
   36DOPC   C48 1938   2.264   3.694   3.300
   36DOPC   C49 1939   2.317   3.836   3.319
   36DOPC   C50 1940   2.398   3.881   3.197
   36DOPC   CA1 1941   2.456   4.021   3.218
   36DOPC   CA2 1942   2.549   4.025   3.339
   36DOPC   CA3 1943   1.197   3.123   3.597
   36DOPC   CA4 1944   1.268   3.115   3.733
   37DOPC    C1 1945   3.184   1.229   1.569
   37DOPC    C2 1946   3.180   1.028   1.693
   37DOPC    C3 1947   3.097   1.028   1.473
   37DOPC    N4 1948   3.105   1.108   1.596
   37DOPC    C5 1949   2.970   1.136   1.653
   37DOPC    C6 1950   2.865   1.214   1.570
   37DOPC    O7 1951   2.899   1.351   1.547
   37DOPC    P8 1952   2.791   1.426   1.462
   37DOPC    O9 1953   2.847   1.556   1.424
   37DOPC   O10 1954   2.743   1.331   1.360
   37DOPC   O11 1955   2.682   1.445   1.573
   37DOPC   C12 1956   2.737   1.525   1.677
   37DOPC   C13 1957   2.636   1.604   1.761
   37DOPC   O14 1958   2.698   1.687   1.865
   37DOPC   C15 1959   2.776   1.793   1.834
   37DOPC   O16 1960   2.797   1.824   1.717
   37DOPC   C17 1961   2.845   1.863   1.952
   37DOPC   C18 1962   2.755   1.969   2.017
   37DOPC   C19 1963   2.827   2.032   2.137
   37DOPC   C20 1964   2.742   2.139   2.205
   37DOPC   C21 1965   2.713   2.259   2.114
   37DOPC   C22 1966   2.841   2.332   2.070
   37DOPC   C23 1967   2.918   2.393   2.188
   37DOPC   C24 1968   2.835   2.498   2.262
   37DOPC   C25 1969   2.891   2.563   2.372
   37DOPC   C26 1970   3.033   2.528   2.416
   37DOPC   C27 1971   3.075   2.608   2.540
   37DOPC   C28 1972   3.220   2.575   2.576
   37DOPC   C29 1973   3.266   2.653   2.699
   37DOPC   C30 1974   3.184   2.618   2.823
   37DOPC   C31 1975   3.240   2.689   2.946
   37DOPC   C32 1976   2.535   1.501   1.815
   37DOPC   O33 1977   2.593   1.391   1.888
   37DOPC   C34 1978   2.504   1.303   1.939
   37DOPC   O35 1979   2.388   1.299   1.899
   37DOPC   C36 1980   2.562   1.189   2.024
   37DOPC   C37 1981   2.698   1.141   1.972
   37DOPC   C38 1982   2.741   1.013   2.043
   37DOPC   C39 1983   2.880   0.968   2.000
   37DOPC   C40 1984   2.990   1.048   2.070
   37DOPC   C41 1985   2.981   1.028   2.221
   37DOPC   C42 1986   3.098   1.094   2.296
   37DOPC   C43 1987   3.085   1.066   2.446
   37DOPC   C44 1988   3.188   1.098   2.533
   37DOPC   C45 1989   3.318   1.161   2.482
   37DOPC   C46 1990   3.420   1.172   2.596
   37DOPC   C47 1991   3.549   1.240   2.549
   37DOPC   C48 1992   3.614   1.163   2.434
   37DOPC   C49 1993   3.744   1.231   2.391
   37DOPC   C50 1994   3.716   1.376   2.347
   37DOPC   CA1 1995   3.846   1.447   2.306
   37DOPC   CA2 1996   3.818   1.591   2.263
   37DOPC   CA3 1997   3.165   2.648   3.073
   37DOPC   CA4 1998   3.229   2.714   3.196
   38DOPC    C1 1999   1.744   3.432   1.565
   38DOPC    C2 2000   1.869   3.338   1.751
   38DOPC    C3 2001   1.775   3.199   1.585
   38DOPC    N4 2002   1.840   3.329   1.607
   38DOPC    C5 2003   1.962   3.331   1.524
   38DOPC    C6 2004   2.064   3.447   1.538
   38DOPC    O7 2005   2.184   3.414   1.467
   38DOPC    P8 2006   2.298   3.517   1.505
   38DOPC    O9 2007   2.411   3.472   1.422
   38DOPC   O10 2008   2.240   3.651   1.496
   38DOPC   O11 2009   2.315   3.469   1.653
   38DOPC   C12 2010   2.402   3.357   1.659
   38DOPC   C13 2011   2.440   3.318   1.803
   38DOPC   O14 2012   2.330   3.256   1.878
   38DOPC   C15 2013   2.308   3.124   1.858
   38DOPC   O16 2014   2.383   3.059   1.785
   38DOPC   C17 2015   2.192   3.062   1.936
   38DOPC   C18 2016   2.240   3.003   2.068
   38DOPC   C19 2017   2.123   2.941   2.145
   38DOPC   C20 2018   2.171   2.874   2.274
   38DOPC   C21 2019   2.055   2.801   2.342
   38DOPC   C22 2020   2.101   2.727   2.467
   38DOPC   C23 2021   1.983   2.651   2.528
   38DOPC   C24 2022   2.022   2.573   2.654
   38DOPC   C25 2023   1.924   2.496   2.717
   38DOPC   C26 2024   1.783   2.495   2.659
   38DOPC   C27 2025   1.696   2.387   2.724
   38DOPC   C28 2026   1.682   2.406   2.875
   38DOPC   C29 2027   1.598   2.292   2.933
   38DOPC   C30 2028   1.580   2.305   3.084
   38DOPC   C31 2029   1.497   2.188   3.138
   38DOPC   C32 2030   2.493   3.447   1.866
   38DOPC   O33 2031   2.554   3.431   1.995
   38DOPC   C34 2032   2.566   3.547   2.064
   38DOPC   O35 2033   2.533   3.654   2.015
   38DOPC   C36 2034   2.612   3.535   2.210
   38DOPC   C37 2035   2.764   3.532   2.221
   38DOPC   C38 2036   2.805   3.508   2.367
   38DOPC   C39 2037   2.752   3.619   2.457
   38DOPC   C40 2038   2.786   3.589   2.603
   38DOPC   C41 2039   2.739   3.701   2.696
   38DOPC   C42 2040   2.770   3.665   2.841
   38DOPC   C43 2041   2.733   3.778   2.937
   38DOPC   C44 2042   2.752   3.761   3.074
   38DOPC   C45 2043   2.807   3.627   3.126
   38DOPC   C46 2044   2.823   3.629   3.278
   38DOPC   C47 2045   2.870   3.493   3.329
   38DOPC   C48 2046   3.004   3.454   3.267
   38DOPC   C49 2047   3.050   3.317   3.319
   38DOPC   C50 2048   3.185   3.278   3.258
   38DOPC   CA1 2049   3.231   3.142   3.312
   38DOPC   CA2 2050   3.368   3.104   3.254
   38DOPC   CA3 2051   1.474   2.201   3.289
   38DOPC   CA4 2052   1.394   2.082   3.342
   39DOPC    C1 2053   3.915   2.840   1.929
   39DOPC    C2 2054   3.777   3.027   1.887
   39DOPC    C3 2055   3.821   2.869   1.714
   39DOPC    N4 2056   3.794   2.884   1.858
   39DOPC    C5 2057   3.682   2.803   1.910
   39DOPC    C6 2058   3.551   2.790   1.827
   39DOPC    O7 2059   3.478   2.911   1.807
   39DOPC    P8 2060   3.367   2.877   1.701
   39DOPC    O9 2061   3.287   2.996   1.666
   39DOPC   O10 2062   3.435   2.797   1.598
   39DOPC   O11 2063   3.279   2.786   1.794
   39DOPC   C12 2064   3.186   2.866   1.866
   39DOPC   C13 2065   3.091   2.786   1.957
   39DOPC   O14 2066   2.975   2.863   2.004
   39DOPC   C15 2067   2.868   2.876   1.923
   39DOPC   O16 2068   2.860   2.811   1.819
   39DOPC   C17 2069   2.762   2.979   1.962
   39DOPC   C18 2070   2.706   2.956   2.103
   39DOPC   C19 2071   2.621   3.076   2.144
   39DOPC   C20 2072   2.568   3.062   2.286
   39DOPC   C21 2073   2.497   3.190   2.330
   39DOPC   C22 2074   2.448   3.180   2.474
   39DOPC   C23 2075   2.391   3.314   2.522
   39DOPC   C24 2076   2.345   3.303   2.667
   39DOPC   C25 2077   2.302   3.415   2.737
   39DOPC   C26 2078   2.300   3.554   2.672
   39DOPC   C27 2079   2.261   3.657   2.778
   39DOPC   C28 2080   2.254   3.800   2.725
   39DOPC   C29 2081   2.221   3.894   2.841
   39DOPC   C30 2082   2.212   4.041   2.801
   39DOPC   C31 2083   2.194   4.127   2.926
   39DOPC   C32 2084   3.180   2.727   2.067
   39DOPC   O33 2085   3.253   2.826   2.142
   39DOPC   C34 2086   3.330   2.779   2.243
   39DOPC   O35 2087   3.363   2.661   2.250
   39DOPC   C36 2088   3.386   2.887   2.336
   39DOPC   C37 2089   3.520   2.941   2.285
   39DOPC   C38 2090   3.563   3.060   2.370
   39DOPC   C39 2091   3.698   3.116   2.325
   39DOPC   C40 2092   3.733   3.240   2.407
   39DOPC   C41 2093   3.627   3.348   2.387
   39DOPC   C42 2094   3.662   3.478   2.459
   39DOPC   C43 2095   3.665   3.461   2.611
   39DOPC   C44 2096   3.695   3.572   2.690
   39DOPC   C45 2097   3.729   3.704   2.621
   39DOPC   C46 2098   3.757   3.816   2.722
   39DOPC   C47 2099   3.634   3.849   2.805
   39DOPC   C48 2100   3.664   3.963   2.903
   39DOPC   C49 2101   3.537   4.006   2.977
   39DOPC   C50 2102   3.565   4.120   3.075
   39DOPC   CA1 2103   3.664   4.078   3.183
   39DOPC   CA2 2104   3.687   4.191   3.283
   39DOPC   CA3 2105   2.188   4.276   2.893
   39DOPC   CA4 2106   2.187   4.359   3.021
   40DOPC    C1 2107   2.380   2.892   1.323
   40DOPC    C2 2108   2.574   2.778   1.394
   40DOPC    C3 2109   2.517   2.982   1.499
   40DOPC    N4 2110   2.461   2.860   1.441
   40DOPC    C5 2111   2.388   2.780   1.542
   40DOPC    C6 2112   2.262   2.839   1.611
   40DOPC    O7 2113   2.138   2.795   1.556
   40DOPC    P8 2114   2.023   2.873   1.629
   40DOPC    O9 2115   2.065   3.014   1.627
   40DOPC   O10 2116   1.898   2.829   1.563
   40DOPC   O11 2117   2.038   2.801   1.767
   40DOPC   C12 2118   1.942   2.695   1.774
   40DOPC   C13 2119   1.908   2.649   1.917
   40DOPC   O14 2120   1.823   2.744   1.989
   40DOPC   C15 2121   1.701   2.700   2.028
   40DOPC   O16 2122   1.644   2.610   1.967
   40DOPC   C17 2123   1.628   2.790   2.127
   40DOPC   C18 2124   1.669   2.761   2.272
   40DOPC   C19 2125   1.593   2.852   2.368
   40DOPC   C20 2126   1.638   2.831   2.512
   40DOPC   C21 2127   1.558   2.921   2.606
   40DOPC   C22 2128   1.609   2.911   2.750
   40DOPC   C23 2129   1.525   3.002   2.840
   40DOPC   C24 2130   1.381   2.953   2.847
   40DOPC   C25 2131   1.282   3.033   2.903
   40DOPC   C26 2132   1.315   3.175   2.950
   40DOPC   C27 2133   1.194   3.237   3.020
   40DOPC   C28 2134   1.217   3.385   3.050
   40DOPC   C29 2135   1.234   3.465   2.921
   40DOPC   C30 2136   1.251   3.614   2.948
   40DOPC   C31 2137   1.263   3.692   2.818
   40DOPC   C32 2138   2.045   2.621   1.983
   40DOPC   O33 2139   2.046   2.530   2.095
   40DOPC   C34 2140   2.029   2.398   2.068
   40DOPC   O35 2141   2.008   2.359   1.954
   40DOPC   C36 2142   2.032   2.302   2.187
   40DOPC   C37 2143   2.174   2.260   2.224
   40DOPC   C38 2144   2.173   2.149   2.329
   40DOPC   C39 2145   2.095   2.193   2.453
   40DOPC   C40 2146   2.089   2.081   2.558
   40DOPC   C41 2147   2.001   2.125   2.675
   40DOPC   C42 2148   1.990   2.018   2.784
   40DOPC   C43 2149   1.900   2.070   2.896
   40DOPC   C44 2150   1.880   1.997   3.014
   40DOPC   C45 2151   1.949   1.863   3.035
   40DOPC   C46 2152   1.920   1.809   3.176
   40DOPC   C47 2153   1.770   1.794   3.199
   40DOPC   C48 2154   1.741   1.740   3.339
   40DOPC   C49 2155   1.590   1.726   3.363
   40DOPC   C50 2156   1.561   1.672   3.503
   40DOPC   CA1 2157   1.618   1.765   3.610
   40DOPC   CA2 2158   1.589   1.712   3.751
   40DOPC   CA3 2159   1.277   3.842   2.844
   40DOPC   CA4 2160   1.286   3.920   2.713
   41DOPC    C1 2161   4.677   0.036   1.844
   41DOPC    C2 2162   4.839   6.336   1.808
   41DOPC    C3 2163   4.759   6.389   2.025
   41DOPC    N4 2164   4.799   6.447   1.896
   41DOPC    C5 2165   4.911   0.064   1.924
   41DOPC    C6 2166   4.954   0.166   1.816
   41DOPC    O7 2167   5.060   0.247   1.865
   41DOPC    P8 2168   5.094   0.368   1.772
   41DOPC    O9 2169   5.239   0.390   1.789
   41DOPC   O10 2170   5.032   0.347   1.641
   41DOPC   O11 2171   5.011   0.470   1.857
   41DOPC   C12 2172   5.083   0.497   1.976
   41DOPC   C13 2173   4.992   0.545   2.089
   41DOPC   O14 2174   5.064   0.589   2.208
   41DOPC   C15 2175   5.114   0.714   2.209
   41DOPC   O16 2176   5.091   0.793   2.117
   41DOPC   C17 2177   5.185   0.756   2.339
   41DOPC   C18 2178   5.081   0.794   2.445
   41DOPC   C19 2179   5.148   0.843   2.573
   41DOPC   C20 2180   5.226   0.973   2.551
   41DOPC   C21 2181   5.288   1.017   2.684
   41DOPC   C22 2182   5.366   1.148   2.670
   41DOPC   C23 2183   5.430   1.182   2.805
   41DOPC   C24 2184   5.521   1.067   2.848
   41DOPC   C25 2185   5.591   1.070   2.968
   41DOPC   C26 2186   5.581   1.189   3.063
   41DOPC   C27 2187   5.676   1.168   3.181
   41DOPC   C28 2188   5.682   1.289   3.274
   41DOPC   C29 2189   5.790   1.265   3.380
   41DOPC   C30 2190   5.810   1.386   3.471
   41DOPC   C31 2191   5.685   1.418   3.552
   41DOPC   C32 2192   4.895   0.429   2.114
   41DOPC   O33 2193   4.757   0.468   2.124
   41DOPC   C34 2194   4.671   0.365   2.139
   41DOPC   O35 2195   4.708   0.249   2.118
   41DOPC   C36 2196   4.524   0.404   2.154
   41DOPC   C37 2197   4.480   0.421   2.299
   41DOPC   C38 2198   4.338   0.478   2.304
   41DOPC   C39 2199   4.288   0.494   2.448
   41DOPC   C40 2200   4.380   0.582   2.531
   41DOPC   C41 2201   4.327   0.592   2.674
   41DOPC   C42 2202   4.422   0.672   2.763
   41DOPC   C43 2203   4.365   0.683   2.905
   41DOPC   C44 2204   4.439   0.747   3.004
   41DOPC   C45 2205   4.578   0.803   2.970
   41DOPC   C46 2206   4.642   0.867   3.093
   41DOPC   C47 2207   4.563   0.989   3.140
   41DOPC   C48 2208   4.626   1.047   3.266
   41DOPC   C49 2209   4.774   1.079   3.241
   41DOPC   C50 2210   4.840   1.136   3.366
   41DOPC   CA1 2211   4.990   1.158   3.344
   41DOPC   CA2 2212   5.061   1.027   3.311
   41DOPC   CA3 2213   5.710   1.537   3.644
   41DOPC   CA4 2214   5.586   1.570   3.728
   42DOPC    C1 2215   3.993   1.974   1.401
   42DOPC    C2 2216   3.836   2.073   1.543
   42DOPC    C3 2217   4.071   2.081   1.597
   42DOPC    N4 2218   3.972   2.090   1.488
   42DOPC    C5 2219   3.984   2.212   1.404
   42DOPC    C6 2220   4.002   2.349   1.474
   42DOPC    O7 2221   3.891   2.389   1.554
   42DOPC    P8 2222   3.941   2.497   1.656
   42DOPC    O9 2223   4.041   2.585   1.593
   42DOPC   O10 2224   3.822   2.551   1.723
   42DOPC   O11 2225   4.013   2.397   1.753
   42DOPC   C12 2226   3.922   2.348   1.852
   42DOPC   C13 2227   3.989   2.244   1.944
   42DOPC   O14 2228   3.899   2.174   2.036
   42DOPC   C15 2229   3.811   2.081   1.992
   42DOPC   O16 2230   3.806   2.050   1.873
   42DOPC   C17 2231   3.736   2.001   2.100
   42DOPC   C18 2232   3.736   2.070   2.236
   42DOPC   C19 2233   3.678   1.978   2.344
   42DOPC   C20 2234   3.678   2.046   2.481
   42DOPC   C21 2235   3.632   1.949   2.589
   42DOPC   C22 2236   3.630   2.015   2.727
   42DOPC   C23 2237   3.594   1.911   2.833
   42DOPC   C24 2238   3.587   1.972   2.973
   42DOPC   C25 2239   3.573   1.886   3.082
   42DOPC   C26 2240   3.568   1.736   3.054
   42DOPC   C27 2241   3.556   1.652   3.181
   42DOPC   C28 2242   3.567   1.504   3.144
   42DOPC   C29 2243   3.457   1.463   3.046
   42DOPC   C30 2244   3.487   1.326   2.986
   42DOPC   C31 2245   3.503   1.219   3.094
   42DOPC   C32 2246   4.101   2.320   2.016
   42DOPC   O33 2247   4.058   2.427   2.103
   42DOPC   C34 2248   4.160   2.483   2.173
   42DOPC   O35 2249   4.277   2.462   2.141
   42DOPC   C36 2250   4.120   2.574   2.289
   42DOPC   C37 2251   4.099   2.719   2.244
   42DOPC   C38 2252   4.043   2.803   2.359
   42DOPC   C39 2253   4.139   2.807   2.478
   42DOPC   C40 2254   4.078   2.886   2.594
   42DOPC   C41 2255   4.046   3.029   2.551
   42DOPC   C42 2256   3.972   3.105   2.661
   42DOPC   C43 2257   4.056   3.122   2.787
   42DOPC   C44 2258   4.001   3.190   2.895
   42DOPC   C45 2259   3.857   3.242   2.883
   42DOPC   C46 2260   3.815   3.323   3.006
   42DOPC   C47 2261   3.903   3.446   3.023
   42DOPC   C48 2262   3.857   3.528   3.144
   42DOPC   C49 2263   3.945   3.652   3.165
   42DOPC   C50 2264   3.900   3.729   3.289
   42DOPC   CA1 2265   3.991   3.849   3.317
   42DOPC   CA2 2266   3.948   3.919   3.445
   42DOPC   CA3 2267   3.540   1.085   3.030
   42DOPC   CA4 2268   3.671   1.097   2.951
   43DOPC    C1 2269   3.499   4.132   1.493
   43DOPC    C2 2270   3.498   4.216   1.271
   43DOPC    C3 2271   3.626   4.327   1.434
   43DOPC    N4 2272   3.500   4.255   1.413
   43DOPC    C5 2273   3.384   4.346   1.434
   43DOPC    C6 2274   3.325   4.359   1.577
   43DOPC    O7 2275   3.419   4.398   1.677
   43DOPC    P8 2276   3.357   4.359   1.815
   43DOPC    O9 2277   3.322   4.217   1.801
   43DOPC   O10 2278   3.456   4.410   1.911
   43DOPC   O11 2279   3.230   4.449   1.806
   43DOPC   C12 2280   3.219   4.528   1.923
   43DOPC   C13 2281   3.075   4.575   1.948
   43DOPC   O14 2282   3.061   4.665   2.062
   43DOPC   C15 2283   3.102   4.794   2.049
   43DOPC   O16 2284   3.136   4.838   1.939
   43DOPC   C17 2285   3.119   4.872   2.180
   43DOPC   C18 2286   3.079   5.019   2.170
   43DOPC   C19 2287   2.929   5.038   2.192
   43DOPC   C20 2288   2.889   4.985   2.330
   43DOPC   C21 2289   2.743   5.017   2.361
   43DOPC   C22 2290   2.701   4.958   2.496
   43DOPC   C23 2291   2.558   5.001   2.528
   43DOPC   C24 2292   2.551   5.153   2.541
   43DOPC   C25 2293   2.429   5.218   2.552
   43DOPC   C26 2294   2.298   5.138   2.546
   43DOPC   C27 2295   2.179   5.232   2.567
   43DOPC   C28 2296   2.182   5.345   2.465
   43DOPC   C29 2297   2.064   5.440   2.484
   43DOPC   C30 2298   2.073   5.558   2.387
   43DOPC   C31 2299   2.200   5.639   2.413
   43DOPC   C32 2300   2.994   4.445   1.955
   43DOPC   O33 2301   3.056   4.342   2.033
   43DOPC   C34 2302   2.994   4.222   2.037
   43DOPC   O35 2303   2.889   4.203   1.977
   43DOPC   C36 2304   3.066   4.114   2.118
   43DOPC   C37 2305   3.026   4.120   2.265
   43DOPC   C38 2306   3.102   4.017   2.350
   43DOPC   C39 2307   3.051   4.023   2.494
   43DOPC   C40 2308   3.129   3.930   2.587
   43DOPC   C41 2309   3.072   3.941   2.729
   43DOPC   C42 2310   3.156   3.868   2.833
   43DOPC   C43 2311   3.165   3.717   2.810
   43DOPC   C44 2312   3.232   3.640   2.904
   43DOPC   C45 2313   3.292   3.711   3.025
   43DOPC   C46 2314   3.359   3.614   3.123
   43DOPC   C47 2315   3.420   3.693   3.240
   43DOPC   C48 2316   3.482   3.600   3.344
   43DOPC   C49 2317   3.546   3.681   3.457
   43DOPC   C50 2318   3.443   3.771   3.526
   43DOPC   CA1 2319   3.508   3.854   3.637
   43DOPC   CA2 2320   3.405   3.944   3.707
   43DOPC   CA3 2321   2.211   5.756   2.315
   43DOPC   CA4 2322   2.215   5.705   2.171
   44DOPC    C1 2323   4.823   0.831   1.709
   44DOPC    C2 2324   4.633   0.930   1.805
   44DOPC    C3 2325   4.707   0.709   1.871
   44DOPC    N4 2326   4.688   0.801   1.758
   44DOPC    C5 2327   4.608   0.742   1.647
   44DOPC    C6 2328   4.457   0.712   1.670
   44DOPC    O7 2329   4.431   0.602   1.758
   44DOPC    P8 2330   4.280   0.604   1.805
   44DOPC    O9 2331   4.205   0.621   1.680
   44DOPC   O10 2332   4.268   0.486   1.892
   44DOPC   O11 2333   4.294   0.737   1.888
   44DOPC   C12 2334   4.333   0.704   2.021
   44DOPC   C13 2335   4.398   0.821   2.096
   44DOPC   O14 2336   4.479   0.780   2.210
   44DOPC   C15 2337   4.591   0.851   2.238
   44DOPC   O16 2338   4.645   0.919   2.150
   44DOPC   C17 2339   4.654   0.830   2.375
   44DOPC   C18 2340   4.705   0.963   2.430
   44DOPC   C19 2341   4.757   0.952   2.573
   44DOPC   C20 2342   4.814   1.087   2.618
   44DOPC   C21 2343   4.869   1.081   2.760
   44DOPC   C22 2344   4.932   1.215   2.797
   44DOPC   C23 2345   4.989   1.212   2.939
   44DOPC   C24 2346   5.055   1.345   2.980
   44DOPC   C25 2347   4.981   1.457   3.019
   44DOPC   C26 2348   4.829   1.455   3.031
   44DOPC   C27 2349   4.776   1.594   3.069
   44DOPC   C28 2350   4.623   1.595   3.077
   44DOPC   C29 2351   4.573   1.736   3.111
   44DOPC   C30 2352   4.420   1.742   3.113
   44DOPC   C31 2353   4.372   1.884   3.142
   44DOPC   C32 2354   4.284   0.920   2.127
   44DOPC   O33 2355   4.171   0.862   2.194
   44DOPC   C34 2356   4.073   0.949   2.228
   44DOPC   O35 2357   4.081   1.068   2.198
   44DOPC   C36 2358   3.955   0.891   2.307
   44DOPC   C37 2359   3.999   0.851   2.448
   44DOPC   C38 2360   3.886   0.781   2.524
   44DOPC   C39 2361   3.932   0.747   2.666
   44DOPC   C40 2362   3.971   0.876   2.739
   44DOPC   C41 2363   4.024   0.849   2.880
   44DOPC   C42 2364   4.062   0.982   2.945
   44DOPC   C43 2365   4.121   0.965   3.085
   44DOPC   C44 2366   4.157   1.080   3.154
   44DOPC   C45 2367   4.132   1.215   3.087
   44DOPC   C46 2368   4.181   1.333   3.171
   44DOPC   C47 2369   4.144   1.464   3.101
   44DOPC   C48 2370   3.993   1.475   3.085
   44DOPC   C49 2371   3.952   1.605   3.016
   44DOPC   C50 2372   4.007   1.612   2.874
   44DOPC   CA1 2373   3.963   1.741   2.805
   44DOPC   CA2 2374   4.013   1.746   2.660
   44DOPC   CA3 2375   4.219   1.892   3.140
   44DOPC   CA4 2376   4.171   2.035   3.166
   45DOPC    C1 2377   6.223   0.415   1.614
   45DOPC    C2 2378   6.390   0.371   1.780
   45DOPC    C3 2379   6.355   0.590   1.700
   45DOPC    N4 2380   6.287   0.465   1.737
   45DOPC    C5 2381   6.194   0.495   1.849
   45DOPC    C6 2382   6.103   0.382   1.903
   45DOPC    O7 2383   5.986   0.360   1.825
   45DOPC    P8 2384   5.955   0.206   1.821
   45DOPC    O9 2385   5.846   0.190   1.724
   45DOPC   O10 2386   6.085   0.140   1.805
   45DOPC   O11 2387   5.903   0.189   1.967
   45DOPC   C12 2388   5.765   0.226   1.971
   45DOPC   C13 2389   5.695   0.193   2.104
   45DOPC   O14 2390   5.703   0.298   2.205
   45DOPC   C15 2391   5.615   0.401   2.198
   45DOPC   O16 2392   5.542   0.414   2.100
   45DOPC   C17 2393   5.613   0.498   2.316
   45DOPC   C18 2394   5.499   0.465   2.413
   45DOPC   C19 2395   5.502   0.556   2.536
   45DOPC   C20 2396   5.384   0.527   2.628
   45DOPC   C21 2397   5.385   0.382   2.676
   45DOPC   C22 2398   5.263   0.353   2.764
   45DOPC   C23 2399   5.261   0.207   2.811
   45DOPC   C24 2400   5.136   0.175   2.894
   45DOPC   C25 2401   5.124   0.205   3.029
   45DOPC   C26 2402   5.238   0.269   3.108
   45DOPC   C27 2403   5.201   0.285   3.256
   45DOPC   C28 2404   5.315   0.350   3.333
   45DOPC   C29 2405   5.283   0.365   3.482
   45DOPC   C30 2406   5.254   0.230   3.546
   45DOPC   C31 2407   5.237   0.244   3.698
   45DOPC   C32 2408   5.746   0.053   2.142
   45DOPC   O33 2409   5.672   6.460   2.244
   45DOPC   C34 2410   5.710   6.333   2.267
   45DOPC   O35 2411   5.795   6.278   2.197
   45DOPC   C36 2412   5.637   6.261   2.382
   45DOPC   C37 2413   5.715   6.139   2.432
   45DOPC   C38 2414   5.640   6.065   2.543
   45DOPC   C39 2415   5.710   5.933   2.576
   45DOPC   C40 2416   5.639   5.855   2.686
   45DOPC   C41 2417   5.687   5.710   2.689
   45DOPC   C42 2418   5.837   5.698   2.717
   45DOPC   C43 2419   5.872   5.740   2.860
   45DOPC   C44 2420   6.003   5.730   2.904
   45DOPC   C45 2421   6.112   5.682   2.808
   45DOPC   C46 2422   6.247   5.668   2.878
   45DOPC   C47 2423   6.248   5.554   2.981
   45DOPC   C48 2424   6.225   5.419   2.913
   45DOPC   C49 2425   6.241   5.303   3.011
   45DOPC   C50 2426   6.141   5.310   3.126
   45DOPC   CA1 2427   6.164   5.194   3.223
   45DOPC   CA2 2428   6.150   5.059   3.154
   45DOPC   CA3 2429   5.365   0.299   3.761
   45DOPC   CA4 2430   5.351   0.313   3.913
   46DOPC    C1 2431   4.208   6.474   1.794
   46DOPC    C2 2432   4.093   6.425   1.593
   46DOPC    C3 2433   4.173   0.172   1.641
   46DOPC    N4 2434   4.111   0.052   1.697
   46DOPC    C5 2435   3.986   0.081   1.771
   46DOPC    C6 2436   3.865   0.140   1.694
   46DOPC    O7 2437   3.879   0.277   1.660
   46DOPC    P8 2438   3.762   0.322   1.569
   46DOPC    O9 2439   3.781   0.465   1.535
   46DOPC   O10 2440   3.747   0.221   1.464
   46DOPC   O11 2441   3.643   0.306   1.669
   46DOPC   C12 2442   3.639   0.417   1.757
   46DOPC   C13 2443   3.520   0.410   1.854
   46DOPC   O14 2444   3.526   0.513   1.958
   46DOPC   C15 2445   3.499   0.642   1.929
   46DOPC   O16 2446   3.464   0.677   1.816
   46DOPC   C17 2447   3.516   0.740   2.045
   46DOPC   C18 2448   3.383   0.794   2.096
   46DOPC   C19 2449   3.400   0.844   2.240
   46DOPC   C20 2450   3.435   0.725   2.330
   46DOPC   C21 2451   3.464   0.768   2.474
   46DOPC   C22 2452   3.484   0.644   2.562
   46DOPC   C23 2453   3.524   0.682   2.705
   46DOPC   C24 2454   3.531   0.556   2.792
   46DOPC   C25 2455   3.584   0.563   2.920
   46DOPC   C26 2456   3.638   0.695   2.975
   46DOPC   C27 2457   3.704   0.675   3.111
   46DOPC   C28 2458   3.605   0.625   3.216
   46DOPC   C29 2459   3.676   0.599   3.348
   46DOPC   C30 2460   3.578   0.559   3.459
   46DOPC   C31 2461   3.478   0.672   3.485
   46DOPC   C32 2462   3.524   0.267   1.909
   46DOPC   O33 2463   3.409   0.228   1.986
   46DOPC   C34 2464   3.417   0.105   2.043
   46DOPC   O35 2465   3.507   0.027   2.012
   46DOPC   C36 2466   3.308   0.072   2.145
   46DOPC   C37 2467   3.341   0.138   2.280
   46DOPC   C38 2468   3.233   0.112   2.385
   46DOPC   C39 2469   3.271   0.181   2.516
   46DOPC   C40 2470   3.164   0.162   2.625
   46DOPC   C41 2471   3.206   0.233   2.753
   46DOPC   C42 2472   3.098   0.224   2.862
   46DOPC   C43 2473   3.066   0.078   2.895
   46DOPC   C44 2474   2.984   0.048   3.003
   46DOPC   C45 2475   2.926   0.159   3.091
   46DOPC   C46 2476   2.853   0.100   3.211
   46DOPC   C47 2477   2.799   0.209   3.303
   46DOPC   C48 2478   2.730   0.148   3.425
   46DOPC   C49 2479   2.674   0.256   3.518
   46DOPC   C50 2480   2.604   0.192   3.638
   46DOPC   CA1 2481   2.548   0.298   3.733
   46DOPC   CA2 2482   2.660   0.386   3.789
   46DOPC   CA3 2483   3.384   0.636   3.600
   46DOPC   CA4 2484   3.462   0.614   3.730
   47DOPC    C1 2485   3.868   3.264   1.291
   47DOPC    C2 2486   4.042   3.428   1.297
   47DOPC    C3 2487   3.825   3.484   1.370
   47DOPC    N4 2488   3.924   3.376   1.368
   47DOPC    C5 2489   3.952   3.340   1.510
   47DOPC    C6 2490   4.046   3.221   1.542
   47DOPC    O7 2491   4.184   3.247   1.518
   47DOPC    P8 2492   4.267   3.118   1.549
   47DOPC    O9 2493   4.197   3.010   1.479
   47DOPC   O10 2494   4.407   3.149   1.516
   47DOPC   O11 2495   4.245   3.116   1.703
   47DOPC   C12 2496   4.346   3.195   1.766
   47DOPC   C13 2497   4.431   3.115   1.867
   47DOPC   O14 2498   4.533   3.028   1.809
   47DOPC   C15 2499   4.649   3.087   1.770
   47DOPC   O16 2500   4.667   3.208   1.786
   47DOPC   C17 2501   4.751   2.999   1.696
   47DOPC   C18 2502   4.895   3.041   1.724
   47DOPC   C19 2503   4.944   2.990   1.860
   47DOPC   C20 2504   4.947   2.837   1.860
   47DOPC   C21 2505   4.993   2.781   1.995
   47DOPC   C22 2506   5.002   2.629   1.987
   47DOPC   C23 2507   5.043   2.569   2.122
   47DOPC   C24 2508   4.940   2.600   2.229
   47DOPC   C25 2509   4.956   2.550   2.358
   47DOPC   C26 2510   5.077   2.462   2.390
   47DOPC   C27 2511   5.077   2.422   2.538
   47DOPC   C28 2512   5.202   2.339   2.570
   47DOPC   C29 2513   5.208   2.300   2.718
   47DOPC   C30 2514   5.333   2.217   2.744
   47DOPC   C31 2515   5.348   2.181   2.892
   47DOPC   C32 2516   4.327   3.054   1.961
   47DOPC   O33 2517   4.284   3.154   2.054
   47DOPC   C34 2518   4.172   3.131   2.127
   47DOPC   O35 2519   4.095   3.039   2.102
   47DOPC   C36 2520   4.146   3.235   2.237
   47DOPC   C37 2521   4.060   3.352   2.189
   47DOPC   C38 2522   4.088   3.474   2.276
   47DOPC   C39 2523   4.065   3.443   2.424
   47DOPC   C40 2524   4.119   3.555   2.513
   47DOPC   C41 2525   4.102   3.518   2.660
   47DOPC   C42 2526   4.173   3.617   2.753
   47DOPC   C43 2527   4.122   3.760   2.735
   47DOPC   C44 2528   4.168   3.860   2.819
   47DOPC   C45 2529   4.269   3.826   2.929
   47DOPC   C46 2530   4.301   3.948   3.015
   47DOPC   C47 2531   4.405   3.913   3.122
   47DOPC   C48 2532   4.433   4.033   3.212
   47DOPC   C49 2533   4.307   4.076   3.286
   47DOPC   C50 2534   4.334   4.194   3.380
   47DOPC   CA1 2535   4.206   4.236   3.452
   47DOPC   CA2 2536   4.230   4.355   3.544
   47DOPC   CA3 2537   5.476   2.101   2.915
   47DOPC   CA4 2538   5.494   2.064   3.062
   48DOPC    C1 2539   3.040   0.196   1.043
   48DOPC    C2 2540   3.260   0.270   1.091
   48DOPC    C3 2541   3.069   0.407   1.144
   48DOPC    N4 2542   3.121   0.270   1.140
   48DOPC    C5 2543   3.105   0.198   1.269
   48DOPC    C6 2544   3.183   0.246   1.394
   48DOPC    O7 2545   3.164   0.152   1.498
   48DOPC    P8 2546   3.249   0.181   1.626
   48DOPC    O9 2547   3.347   0.071   1.629
   48DOPC   O10 2548   3.287   0.323   1.624
   48DOPC   O11 2549   3.129   0.159   1.723
   48DOPC   C12 2550   3.122   0.260   1.823
   48DOPC   C13 2551   2.976   0.283   1.867
   48DOPC   O14 2552   2.957   0.382   1.972
   48DOPC   C15 2553   2.955   0.514   1.941
   48DOPC   O16 2554   2.947   0.553   1.824
   48DOPC   C17 2555   2.946   0.610   2.060
   48DOPC   C18 2556   3.015   0.555   2.185
   48DOPC   C19 2557   2.996   0.646   2.306
   48DOPC   C20 2558   3.059   0.583   2.430
   48DOPC   C21 2559   3.041   0.669   2.555
   48DOPC   C22 2560   3.102   0.598   2.675
   48DOPC   C23 2561   3.094   0.681   2.803
   48DOPC   C24 2562   3.167   0.814   2.786
   48DOPC   C25 2563   3.194   0.893   2.897
   48DOPC   C26 2564   3.154   0.846   3.037
   48DOPC   C27 2565   3.193   0.950   3.142
   48DOPC   C28 2566   3.155   0.904   3.283
   48DOPC   C29 2567   3.190   1.012   3.385
   48DOPC   C30 2568   3.154   0.967   3.527
   48DOPC   C31 2569   3.185   1.074   3.631
   48DOPC   C32 2570   2.919   0.143   1.897
   48DOPC   O33 2571   2.988   0.060   1.991
   48DOPC   C34 2572   2.938   6.410   2.001
   48DOPC   O35 2573   2.847   6.373   1.926
   48DOPC   C36 2574   3.002   6.316   2.103
   48DOPC   C37 2575   2.925   6.315   2.235
   48DOPC   C38 2576   2.983   6.210   2.330
   48DOPC   C39 2577   2.902   6.202   2.459
   48DOPC   C40 2578   2.911   6.334   2.537
   48DOPC   C41 2579   2.827   6.327   2.664
   48DOPC   C42 2580   2.868   6.207   2.750
   48DOPC   C43 2581   2.799   6.209   2.886
   48DOPC   C44 2582   2.819   6.105   2.975
   48DOPC   C45 2583   2.901   5.982   2.935
   48DOPC   C46 2584   2.936   5.896   3.057
   48DOPC   C47 2585   2.811   5.850   3.132
   48DOPC   C48 2586   2.721   5.758   3.048
   48DOPC   C49 2587   2.594   5.722   3.125
   48DOPC   C50 2588   2.624   5.644   3.253
   48DOPC   CA1 2589   2.687   5.508   3.223
   48DOPC   CA2 2590   2.716   5.431   3.352
   48DOPC   CA3 2591   3.099   1.199   3.613
   48DOPC   CA4 2592   2.950   1.168   3.635
   49DOPC    C1 2593   4.190   2.366   5.955
   49DOPC    C2 2594   3.965   2.398   6.022
   49DOPC    C3 2595   4.016   2.216   5.885
   49DOPC    N4 2596   4.050   2.356   5.909
   49DOPC    C5 2597   4.017   2.443   5.794
   49DOPC    C6 2598   4.118   2.452   5.676
   49DOPC    O7 2599   4.140   2.326   5.613
   49DOPC    P8 2600   4.263   2.336   5.519
   49DOPC    O9 2601   4.373   2.405   5.588
   49DOPC   O10 2602   4.283   2.208   5.451
   49DOPC   O11 2603   4.211   2.441   5.416
   49DOPC   C12 2604   4.166   2.376   5.298
   49DOPC   C13 2605   4.131   2.474   5.185
   49DOPC   O14 2606   4.109   2.406   5.057
   49DOPC   C15 2607   3.983   2.366   5.028
   49DOPC   O16 2608   3.895   2.375   5.114
   49DOPC   C17 2609   3.955   2.318   4.886
   49DOPC   C18 2610   4.021   2.183   4.855
   49DOPC   C19 2611   3.991   2.141   4.711
   49DOPC   C20 2612   4.042   2.245   4.611
   49DOPC   C21 2613   4.004   2.206   4.468
   49DOPC   C22 2614   4.065   2.071   4.428
   49DOPC   C23 2615   4.022   2.033   4.286
   49DOPC   C24 2616   3.869   2.019   4.279
   49DOPC   C25 2617   3.807   1.995   4.156
   49DOPC   C26 2618   3.890   1.983   4.029
   49DOPC   C27 2619   3.800   1.970   3.905
   49DOPC   C28 2620   3.710   2.092   3.890
   49DOPC   C29 2621   3.621   2.080   3.767
   49DOPC   C30 2622   3.533   2.205   3.751
   49DOPC   C31 2623   3.447   2.197   3.625
   49DOPC   C32 2624   4.246   2.578   5.187
   49DOPC   O33 2625   4.226   2.701   5.114
   49DOPC   C34 2626   4.240   2.692   4.979
   49DOPC   O35 2627   4.312   2.606   4.930
   49DOPC   C36 2628   4.203   2.821   4.904
   49DOPC   C37 2629   4.116   2.797   4.780
   49DOPC   C38 2630   4.195   2.738   4.663
   49DOPC   C39 2631   4.107   2.724   4.539
   49DOPC   C40 2632   4.189   2.674   4.420
   49DOPC   C41 2633   4.106   2.674   4.292
   49DOPC   C42 2634   4.193   2.630   4.174
   49DOPC   C43 2635   4.115   2.632   4.043
   49DOPC   C44 2636   4.176   2.589   3.926
   49DOPC   C45 2637   4.322   2.541   3.931
   49DOPC   C46 2638   4.362   2.479   3.797
   49DOPC   C47 2639   4.275   2.358   3.766
   49DOPC   C48 2640   4.296   2.246   3.868
   49DOPC   C49 2641   4.194   2.133   3.848
   49DOPC   C50 2642   4.205   2.069   3.710
   49DOPC   CA1 2643   4.340   2.000   3.690
   49DOPC   CA2 2644   4.349   1.940   3.549
   49DOPC   CA3 2645   3.362   2.323   3.609
   49DOPC   CA4 2646   3.278   2.317   3.481
   50DOPC    C1 2647   6.476   3.433   5.879
   50DOPC    C2 2648   6.531   3.665   5.854
   50DOPC    C3 2649   0.065   3.534   6.009
   50DOPC    N4 2650   0.004   3.530   5.876
   50DOPC    C5 2651   0.110   3.492   5.779
   50DOPC    C6 2652   0.083   3.512   5.627
   50DOPC    O7 2653   6.565   3.427   5.570
   50DOPC    P8 2654   6.481   3.515   5.472
   50DOPC    O9 2655   6.374   3.434   5.412
   50DOPC   O10 2656   6.449   3.640   5.542
   50DOPC   O11 2657   0.006   3.544   5.362
   50DOPC   C12 2658   0.035   3.427   5.287
   50DOPC   C13 2659   0.109   3.464   5.157
   50DOPC   O14 2660   0.129   3.349   5.069
   50DOPC   C15 2661   0.141   3.377   4.936
   50DOPC   O16 2662   0.086   3.478   4.892
   50DOPC   C17 2663   0.184   3.262   4.846
   50DOPC   C18 2664   0.063   3.201   4.774
   50DOPC   C19 2665   0.103   3.097   4.670
   50DOPC   C20 2666   0.186   3.157   4.556
   50DOPC   C21 2667   0.111   3.270   4.485
   50DOPC   C22 2668   0.187   3.318   4.361
   50DOPC   C23 2669   0.189   3.209   4.254
   50DOPC   C24 2670   0.267   3.252   4.129
   50DOPC   C25 2671   0.262   3.173   4.015
   50DOPC   C26 2672   0.174   3.048   4.016
   50DOPC   C27 2673   0.173   2.975   3.882
   50DOPC   C28 2674   0.079   2.855   3.892
   50DOPC   C29 2675   0.072   2.775   3.762
   50DOPC   C30 2676   6.557   2.657   3.779
   50DOPC   C31 2677   6.546   2.574   3.652
   50DOPC   C32 2678   0.237   3.537   5.204
   50DOPC   O33 2679   0.304   3.614   5.104
   50DOPC   C34 2680   0.242   3.727   5.062
   50DOPC   O35 2681   0.150   3.777   5.127
   50DOPC   C36 2682   0.302   3.795   4.939
   50DOPC   C37 2683   0.191   3.835   4.841
   50DOPC   C38 2684   0.249   3.901   4.715
   50DOPC   C39 2685   0.341   3.805   4.641
   50DOPC   C40 2686   0.398   3.869   4.515
   50DOPC   C41 2687   0.287   3.911   4.419
   50DOPC   C42 2688   0.344   3.974   4.292
   50DOPC   C43 2689   0.436   3.876   4.219
   50DOPC   C44 2690   0.486   3.909   4.094
   50DOPC   C45 2691   0.446   4.043   4.031
   50DOPC   C46 2692   0.500   4.059   3.889
   50DOPC   C47 2693   0.452   4.192   3.831
   50DOPC   C48 2694   0.299   4.199   3.841
   50DOPC   C49 2695   0.243   4.328   3.782
   50DOPC   C50 2696   0.092   4.334   3.806
   50DOPC   CA1 2697   0.024   4.211   3.746
   50DOPC   CA2 2698   6.455   4.212   3.773
   50DOPC   CA3 2699   6.449   2.457   3.673
   50DOPC   CA4 2700   6.436   2.373   3.546
   51DOPC    C1 2701   2.543   3.686   5.667
   51DOPC    C2 2702   2.460   3.549   5.493
   51DOPC    C3 2703   2.649   3.478   5.622
   51DOPC    N4 2704   2.519   3.546   5.628
   51DOPC    C5 2705   2.429   3.487   5.730
   51DOPC    C6 2706   2.388   3.338   5.716
   51DOPC    O7 2707   2.288   3.313   5.619
   51DOPC    P8 2708   2.269   3.159   5.601
   51DOPC    O9 2709   2.403   3.101   5.585
   51DOPC   O10 2710   2.175   3.105   5.702
   51DOPC   O11 2711   2.199   3.160   5.462
   51DOPC   C12 2712   2.299   3.182   5.363
   51DOPC   C13 2713   2.244   3.208   5.221
   51DOPC   O14 2714   2.214   3.347   5.187
   51DOPC   C15 2715   2.320   3.425   5.154
   51DOPC   O16 2716   2.434   3.391   5.181
   51DOPC   C17 2717   2.284   3.562   5.095
   51DOPC   C18 2718   2.396   3.665   5.118
   51DOPC   C19 2719   2.361   3.798   5.053
   51DOPC   C20 2720   2.341   3.782   4.902
   51DOPC   C21 2721   2.300   3.915   4.839
   51DOPC   C22 2722   2.275   3.901   4.689
   51DOPC   C23 2723   2.222   4.033   4.632
   51DOPC   C24 2724   2.191   4.022   4.483
   51DOPC   C25 2725   2.129   4.128   4.418
   51DOPC   C26 2726   2.091   4.253   4.497
   51DOPC   C27 2727   2.020   4.355   4.408
   51DOPC   C28 2728   1.984   4.482   4.485
   51DOPC   C29 2729   1.914   4.582   4.394
   51DOPC   C30 2730   1.876   4.710   4.469
   51DOPC   C31 2731   1.806   4.808   4.376
   51DOPC   C32 2732   2.131   3.106   5.203
   51DOPC   O33 2733   2.180   2.976   5.168
   51DOPC   C34 2734   2.084   2.881   5.161
   51DOPC   O35 2735   1.977   2.897   5.218
   51DOPC   C36 2736   2.121   2.756   5.080
   51DOPC   C37 2737   1.995   2.680   5.037
   51DOPC   C38 2738   2.021   2.582   4.922
   51DOPC   C39 2739   1.894   2.500   4.897
   51DOPC   C40 2740   1.903   2.424   4.765
   51DOPC   C41 2741   1.904   2.521   4.647
   51DOPC   C42 2742   1.913   2.445   4.515
   51DOPC   C43 2743   1.905   2.539   4.394
   51DOPC   C44 2744   1.926   2.486   4.267
   51DOPC   C45 2745   1.961   2.338   4.256
   51DOPC   C46 2746   1.980   2.291   4.112
   51DOPC   C47 2747   2.026   2.145   4.113
   51DOPC   C48 2748   1.926   2.059   4.190
   51DOPC   C49 2749   1.975   1.915   4.204
   51DOPC   C50 2750   1.875   1.832   4.284
   51DOPC   CA1 2751   1.925   1.689   4.303
   51DOPC   CA2 2752   1.826   1.604   4.383
   51DOPC   CA3 2753   1.679   4.746   4.318
   51DOPC   CA4 2754   1.607   4.843   4.224
   52DOPC    C1 2755   4.179   5.941   5.660
   52DOPC    C2 2756   4.096   6.151   5.593
   52DOPC    C3 2757   4.305   6.140   5.703
   52DOPC    N4 2758   4.219   6.072   5.605
   52DOPC    C5 2759   4.276   6.058   5.468
   52DOPC    C6 2760   4.418   5.999   5.451
   52DOPC    O7 2761   4.520   6.099   5.450
   52DOPC    P8 2762   4.658   6.038   5.492
   52DOPC    O9 2763   4.744   6.153   5.524
   52DOPC   O10 2764   4.624   5.936   5.594
   52DOPC   O11 2765   4.702   5.970   5.358
   52DOPC   C12 2766   4.723   6.066   5.254
   52DOPC   C13 2767   4.866   6.120   5.236
   52DOPC   O14 2768   4.868   6.240   5.150
   52DOPC   C15 2769   4.987   6.300   5.126
   52DOPC   O16 2770   5.085   6.278   5.197
   52DOPC   C17 2771   4.994   6.393   5.004
   52DOPC   C18 2772   4.911   0.045   5.017
   52DOPC   C19 2773   4.929   0.129   4.891
   52DOPC   C20 2774   4.850   0.261   4.899
   52DOPC   C21 2775   4.872   0.344   4.773
   52DOPC   C22 2776   4.793   0.475   4.781
   52DOPC   C23 2777   4.814   0.560   4.655
   52DOPC   C24 2778   4.768   0.486   4.529
   52DOPC   C25 2779   4.770   0.551   4.407
   52DOPC   C26 2780   4.817   0.697   4.400
   52DOPC   C27 2781   4.801   0.755   4.259
   52DOPC   C28 2782   4.889   0.683   4.156
   52DOPC   C29 2783   4.864   0.742   4.017
   52DOPC   C30 2784   4.891   0.892   4.016
   52DOPC   C31 2785   4.854   0.954   3.881
   52DOPC   C32 2786   4.951   6.001   5.187
   52DOPC   O33 2787   4.899   5.942   5.067
   52DOPC   C34 2788   4.975   5.846   5.009
   52DOPC   O35 2789   5.089   5.821   5.050
   52DOPC   C36 2790   4.914   5.775   4.888
   52DOPC   C37 2791   4.761   5.770   4.893
   52DOPC   C38 2792   4.708   5.682   5.007
   52DOPC   C39 2793   4.558   5.707   5.026
   52DOPC   C40 2794   4.480   5.676   4.898
   52DOPC   C41 2795   4.333   5.714   4.914
   52DOPC   C42 2796   4.254   5.681   4.788
   52DOPC   C43 2797   4.253   5.530   4.762
   52DOPC   C44 2798   4.193   5.480   4.647
   52DOPC   C45 2799   4.131   5.576   4.545
   52DOPC   C46 2800   4.060   5.498   4.434
   52DOPC   C47 2801   4.156   5.401   4.365
   52DOPC   C48 2802   4.084   5.325   4.252
   52DOPC   C49 2803   4.174   5.218   4.190
   52DOPC   C50 2804   4.301   5.278   4.131
   52DOPC   CA1 2805   4.389   5.168   4.070
   52DOPC   CA2 2806   4.516   5.226   4.008
   52DOPC   CA3 2807   4.879   1.105   3.883
   52DOPC   CA4 2808   4.837   1.170   3.751
   53DOPC    C1 2809   3.480   3.797   5.901
   53DOPC    C2 2810   3.512   3.792   5.669
   53DOPC    C3 2811   3.368   3.632   5.775
   53DOPC    N4 2812   3.494   3.706   5.787
   53DOPC    C5 2813   3.611   3.618   5.812
   53DOPC    C6 2814   3.642   3.504   5.712
   53DOPC    O7 2815   3.695   3.549   5.588
   53DOPC    P8 2816   3.689   3.432   5.484
   53DOPC    O9 2817   3.750   3.483   5.361
   53DOPC   O10 2818   3.747   3.314   5.551
   53DOPC   O11 2819   3.533   3.429   5.477
   53DOPC   C12 2820   3.490   3.452   5.343
   53DOPC   C13 2821   3.339   3.436   5.326
   53DOPC   O14 2822   3.297   3.411   5.188
   53DOPC   C15 2823   3.171   3.367   5.166
   53DOPC   O16 2824   3.094   3.347   5.261
   53DOPC   C17 2825   3.131   3.343   5.021
   53DOPC   C18 2826   2.979   3.340   5.002
   53DOPC   C19 2827   2.946   3.309   4.856
   53DOPC   C20 2828   3.010   3.176   4.817
   53DOPC   C21 2829   2.978   3.139   4.673
   53DOPC   C22 2830   2.827   3.127   4.653
   53DOPC   C23 2831   2.797   3.078   4.512
   53DOPC   C24 2832   2.861   2.941   4.489
   53DOPC   C25 2833   2.847   2.880   4.365
   53DOPC   C26 2834   2.768   2.952   4.256
   53DOPC   C27 2835   2.768   2.873   4.125
   53DOPC   C28 2836   2.686   2.948   4.020
   53DOPC   C29 2837   2.685   2.873   3.887
   53DOPC   C30 2838   2.599   2.947   3.785
   53DOPC   C31 2839   2.599   2.874   3.651
   53DOPC   C32 2840   3.275   3.558   5.395
   53DOPC   O33 2841   3.324   3.686   5.353
   53DOPC   C34 2842   3.250   3.792   5.391
   53DOPC   O35 2843   3.167   3.782   5.481
   53DOPC   C36 2844   3.295   3.928   5.337
   53DOPC   C37 2845   3.248   3.950   5.193
   53DOPC   C38 2846   3.304   4.082   5.139
   53DOPC   C39 2847   3.261   4.104   4.994
   53DOPC   C40 2848   3.320   4.236   4.941
   53DOPC   C41 2849   3.278   4.262   4.796
   53DOPC   C42 2850   3.327   4.151   4.703
   53DOPC   C43 2851   3.287   4.182   4.558
   53DOPC   C44 2852   3.318   4.093   4.455
   53DOPC   C45 2853   3.392   3.962   4.484
   53DOPC   C46 2854   3.412   3.884   4.354
   53DOPC   C47 2855   3.278   3.851   4.289
   53DOPC   C48 2856   3.296   3.782   4.154
   53DOPC   C49 2857   3.160   3.751   4.091
   53DOPC   C50 2858   3.175   3.690   3.952
   53DOPC   CA1 2859   3.256   3.561   3.955
   53DOPC   CA2 2860   3.270   3.501   3.815
   53DOPC   CA3 2861   2.508   2.945   3.551
   53DOPC   CA4 2862   2.364   2.948   3.604
   54DOPC    C1 2863   1.622   3.185   5.525
   54DOPC    C2 2864   1.739   3.012   5.421
   54DOPC    C3 2865   1.720   3.009   5.657
   54DOPC    N4 2866   1.738   3.097   5.541
   54DOPC    C5 2867   1.868   3.168   5.543
   54DOPC    C6 2868   1.904   3.260   5.662
   54DOPC    O7 2869   1.817   3.372   5.679
   54DOPC    P8 2870   1.895   3.485   5.755
   54DOPC    O9 2871   1.798   3.586   5.799
   54DOPC   O10 2872   1.984   3.419   5.852
   54DOPC   O11 2873   1.978   3.534   5.632
   54DOPC   C12 2874   1.897   3.605   5.539
   54DOPC   C13 2875   1.973   3.623   5.406
   54DOPC   O14 2876   1.947   3.749   5.339
   54DOPC   C15 2877   2.043   3.844   5.343
   54DOPC   O16 2878   2.155   3.815   5.386
   54DOPC   C17 2879   2.002   3.983   5.295
   54DOPC   C18 2880   2.073   4.026   5.166
   54DOPC   C19 2881   2.003   4.148   5.106
   54DOPC   C20 2882   2.074   4.199   4.980
   54DOPC   C21 2883   1.990   4.306   4.911
   54DOPC   C22 2884   1.961   4.422   5.007
   54DOPC   C23 2885   1.876   4.532   4.943
   54DOPC   C24 2886   1.852   4.642   5.045
   54DOPC   C25 2887   1.784   4.759   5.011
   54DOPC   C26 2888   1.728   4.782   4.871
   54DOPC   C27 2889   1.690   4.929   4.856
   54DOPC   C28 2890   1.627   4.963   4.721
   54DOPC   C29 2891   1.490   4.898   4.703
   54DOPC   C30 2892   1.424   4.949   4.575
   54DOPC   C31 2893   1.281   4.896   4.562
   54DOPC   C32 2894   1.951   3.494   5.324
   54DOPC   O33 2895   1.817   3.475   5.278
   54DOPC   C34 2896   1.800   3.367   5.200
   54DOPC   O35 2897   1.853   3.260   5.229
   54DOPC   C36 2898   1.693   3.379   5.091
   54DOPC   C37 2899   1.560   3.313   5.128
   54DOPC   C38 2900   1.471   3.315   5.003
   54DOPC   C39 2901   1.338   3.244   5.025
   54DOPC   C40 2902   1.264   3.237   4.892
   54DOPC   C41 2903   1.348   3.160   4.790
   54DOPC   C42 2904   1.282   3.154   4.652
   54DOPC   C43 2905   1.257   3.295   4.598
   54DOPC   C44 2906   1.216   3.318   4.467
   54DOPC   C45 2907   1.202   3.206   4.363
   54DOPC   C46 2908   1.337   3.163   4.303
   54DOPC   C47 2909   1.407   3.282   4.237
   54DOPC   C48 2910   1.541   3.238   4.175
   54DOPC   C49 2911   1.613   3.358   4.113
   54DOPC   C50 2912   1.527   3.424   4.005
   54DOPC   CA1 2913   1.599   3.544   3.943
   54DOPC   CA2 2914   1.512   3.611   3.837
   54DOPC   CA3 2915   1.212   4.956   4.439
   54DOPC   CA4 2916   1.067   4.908   4.429
   55DOPC    C1 2917   5.391   4.132   5.606
   55DOPC    C2 2918   5.514   4.316   5.690
   55DOPC    C3 2919   5.590   4.090   5.725
   55DOPC    N4 2920   5.527   4.183   5.630
   55DOPC    C5 2921   5.598   4.185   5.500
   55DOPC    C6 2922   5.744   4.237   5.495
   55DOPC    O7 2923   5.755   4.376   5.464
   55DOPC    P8 2924   5.908   4.413   5.476
   55DOPC    O9 2925   5.926   4.550   5.428
   55DOPC   O10 2926   5.943   4.371   5.613
   55DOPC   O11 2927   5.961   4.310   5.370
   55DOPC   C12 2928   5.982   4.372   5.244
   55DOPC   C13 2929   6.022   4.272   5.134
   55DOPC   O14 2930   6.051   4.337   5.006
   55DOPC   C15 2931   6.124   4.272   4.912
   55DOPC   O16 2932   6.177   4.164   4.937
   55DOPC   C17 2933   6.139   4.344   4.778
   55DOPC   C18 2934   6.018   4.312   4.690
   55DOPC   C19 2935   6.024   4.379   4.553
   55DOPC   C20 2936   5.901   4.340   4.471
   55DOPC   C21 2937   5.901   4.404   4.332
   55DOPC   C22 2938   6.025   4.363   4.254
   55DOPC   C23 2939   6.020   4.417   4.111
   55DOPC   C24 2940   6.150   4.384   4.037
   55DOPC   C25 2941   6.164   4.413   3.902
   55DOPC   C26 2942   6.048   4.474   3.823
   55DOPC   C27 2943   6.093   4.503   3.679
   55DOPC   C28 2944   6.206   4.606   3.679
   55DOPC   C29 2945   6.261   4.631   3.538
   55DOPC   C30 2946   6.365   4.743   3.541
   55DOPC   C31 2947   6.429   4.765   3.404
   55DOPC   C32 2948   5.906   4.171   5.133
   55DOPC   O33 2949   5.777   4.228   5.104
   55DOPC   C34 2950   5.670   4.147   5.122
   55DOPC   O35 2951   5.672   4.057   5.205
   55DOPC   C36 2952   5.538   4.206   5.071
   55DOPC   C37 2953   5.455   4.103   4.995
   55DOPC   C38 2954   5.333   4.169   4.931
   55DOPC   C39 2955   5.248   4.070   4.852
   55DOPC   C40 2956   5.129   4.142   4.789
   55DOPC   C41 2957   5.039   4.043   4.714
   55DOPC   C42 2958   5.112   3.974   4.599
   55DOPC   C43 2959   5.021   3.869   4.535
   55DOPC   C44 2960   5.062   3.797   4.424
   55DOPC   C45 2961   5.198   3.823   4.360
   55DOPC   C46 2962   5.218   3.729   4.240
   55DOPC   C47 2963   5.105   3.748   4.139
   55DOPC   C48 2964   5.119   3.653   4.020
   55DOPC   C49 2965   5.001   3.670   3.925
   55DOPC   C50 2966   5.013   3.574   3.806
   55DOPC   CA1 2967   4.893   3.589   3.712
   55DOPC   CA2 2968   4.763   3.556   3.785
   55DOPC   CA3 2969   6.513   4.644   3.361
   55DOPC   CA4 2970   0.047   4.621   3.458
   56DOPC    C1 2971   1.549   5.709   5.983
   56DOPC    C2 2972   1.576   5.497   5.881
   56DOPC    C3 2973   1.482   5.669   5.754
   56DOPC    N4 2974   1.487   5.613   5.890
   56DOPC    C5 2975   1.355   5.564   5.937
   56DOPC    C6 2976   1.244   5.665   5.977
   56DOPC    O7 2977   1.212   5.757   5.874
   56DOPC    P8 2978   1.078   5.830   5.908
   56DOPC    O9 2979   0.981   5.720   5.910
   56DOPC   O10 2980   1.110   5.910   6.028
   56DOPC   O11 2981   1.065   5.915   5.776
   56DOPC   C12 2982   1.064   5.821   5.669
   56DOPC   C13 2983   1.071   5.878   5.527
   56DOPC   O14 2984   1.203   5.933   5.492
   56DOPC   C15 2985   1.298   5.848   5.446
   56DOPC   O16 2986   1.280   5.726   5.444
   56DOPC   C17 2987   1.433   5.911   5.409
   56DOPC   C18 2988   1.418   6.038   5.325
   56DOPC   C19 2989   1.386   6.009   5.178
   56DOPC   C20 2990   1.500   5.931   5.112
   56DOPC   C21 2991   1.476   5.912   4.962
   56DOPC   C22 2992   1.592   5.836   4.899
   56DOPC   C23 2993   1.576   5.824   4.747
   56DOPC   C24 2994   1.692   5.747   4.686
   56DOPC   C25 2995   1.703   5.732   4.548
   56DOPC   C26 2996   1.598   5.795   4.456
   56DOPC   C27 2997   1.631   5.765   4.309
   56DOPC   C28 2998   1.527   5.827   4.215
   56DOPC   C29 2999   1.560   5.792   4.070
   56DOPC   C30 3000   1.458   5.853   3.973
   56DOPC   C31 3001   1.491   5.813   3.829
   56DOPC   C32 3002   0.955   5.979   5.513
   56DOPC   O33 3003   0.906   5.983   5.379
   56DOPC   C34 3004   0.814   6.078   5.350
   56DOPC   O35 3005   0.781   6.164   5.432
   56DOPC   C36 3006   0.756   6.070   5.208
   56DOPC   C37 3007   0.687   6.199   5.165
   56DOPC   C38 3008   0.622   6.182   5.027
   56DOPC   C39 3009   0.545   6.308   4.989
   56DOPC   C40 3010   0.634   6.427   4.955
   56DOPC   C41 3011   0.717   6.403   4.829
   56DOPC   C42 3012   0.782   0.058   4.784
   56DOPC   C43 3013   0.878   0.113   4.890
   56DOPC   C44 3014   0.925   0.243   4.880
   56DOPC   C45 3015   0.879   0.332   4.764
   56DOPC   C46 3016   0.928   0.476   4.782
   56DOPC   C47 3017   0.870   0.567   4.674
   56DOPC   C48 3018   0.911   0.521   4.534
   56DOPC   C49 3019   0.850   0.610   4.425
   56DOPC   C50 3020   0.896   0.565   4.287
   56DOPC   CA1 3021   0.832   0.650   4.176
   56DOPC   CA2 3022   0.864   0.798   4.193
   56DOPC   CA3 3023   1.390   5.870   3.730
   56DOPC   CA4 3024   1.424   5.825   3.587
   57DOPC    C1 3025   1.572   3.342   5.936
   57DOPC    C2 3026   1.502   3.555   6.006
   57DOPC    C3 3027   1.398   3.364   6.099
   57DOPC    N4 3028   1.454   3.420   5.975
   57DOPC    C5 3029   1.351   3.432   5.869
   57DOPC    C6 3030   1.279   3.303   5.822
   57DOPC    O7 3031   1.360   3.219   5.739
   57DOPC    P8 3032   1.303   3.073   5.748
   57DOPC    O9 3033   1.396   2.986   5.674
   57DOPC   O10 3034   1.274   3.053   5.890
   57DOPC   O11 3035   1.171   3.094   5.668
   57DOPC   C12 3036   1.198   3.075   5.529
   57DOPC   C13 3037   1.077   3.106   5.440
   57DOPC   O14 3038   1.093   3.066   5.300
   57DOPC   C15 3039   0.982   3.066   5.221
   57DOPC   O16 3040   0.872   3.099   5.267
   57DOPC   C17 3041   1.002   3.025   5.075
   57DOPC   C18 3042   0.891   3.077   4.984
   57DOPC   C19 3043   0.918   3.039   4.838
   57DOPC   C20 3044   0.802   3.081   4.749
   57DOPC   C21 3045   0.828   3.044   4.603
   57DOPC   C22 3046   0.703   3.071   4.520
   57DOPC   C23 3047   0.722   3.032   4.373
   57DOPC   C24 3048   0.823   3.122   4.300
   57DOPC   C25 3049   0.849   3.094   4.167
   57DOPC   C26 3050   0.781   2.971   4.106
   57DOPC   C27 3051   0.788   2.966   3.953
   57DOPC   C28 3052   0.731   2.832   3.907
   57DOPC   C29 3053   0.591   2.812   3.964
   57DOPC   C30 3054   0.541   2.670   3.938
   57DOPC   C31 3055   0.406   2.647   4.006
   57DOPC   C32 3056   1.047   3.255   5.470
   57DOPC   O33 3057   1.159   3.344   5.458
   57DOPC   C34 3058   1.144   3.463   5.519
   57DOPC   O35 3059   1.067   3.475   5.614
   57DOPC   C36 3060   1.255   3.566   5.493
   57DOPC   C37 3061   1.391   3.498   5.473
   57DOPC   C38 3062   1.500   3.601   5.444
   57DOPC   C39 3063   1.461   3.684   5.321
   57DOPC   C40 3064   1.572   3.781   5.282
   57DOPC   C41 3065   1.523   3.870   5.168
   57DOPC   C42 3066   1.479   3.788   5.047
   57DOPC   C43 3067   1.426   3.880   4.937
   57DOPC   C44 3068   1.388   3.827   4.814
   57DOPC   C45 3069   1.396   3.677   4.789
   57DOPC   C46 3070   1.365   3.645   4.643
   57DOPC   C47 3071   1.465   3.714   4.550
   57DOPC   C48 3072   1.442   3.676   4.404
   57DOPC   C49 3073   1.547   3.743   4.314
   57DOPC   C50 3074   1.688   3.699   4.356
   57DOPC   CA1 3075   1.795   3.766   4.270
   57DOPC   CA2 3076   1.935   3.723   4.314
   57DOPC   CA3 3077   0.360   2.502   3.991
   57DOPC   CA4 3078   0.225   2.479   4.060
   58DOPC    C1 3079   5.611   2.113   5.245
   58DOPC    C2 3080   5.675   2.325   5.173
   58DOPC    C3 3081   5.688   2.277   5.405
   58DOPC    N4 3082   5.609   2.255   5.283
   58DOPC    C5 3083   5.472   2.310   5.297
   58DOPC    C6 3084   5.371   2.235   5.388
   58DOPC    O7 3085   5.245   2.300   5.384
   58DOPC    P8 3086   5.137   2.214   5.456
   58DOPC    O9 3087   5.193   2.139   5.570
   58DOPC   O10 3088   5.023   2.306   5.471
   58DOPC   O11 3089   5.114   2.118   5.334
   58DOPC   C12 3090   5.015   2.174   5.250
   58DOPC   C13 3091   5.001   2.109   5.111
   58DOPC   O14 3092   4.923   1.985   5.100
   58DOPC   C15 3093   4.788   1.997   5.106
   58DOPC   O16 3094   4.736   2.094   5.161
   58DOPC   C17 3095   4.704   1.882   5.048
   58DOPC   C18 3096   4.678   1.901   4.898
   58DOPC   C19 3097   4.599   2.028   4.866
   58DOPC   C20 3098   4.588   2.050   4.715
   58DOPC   C21 3099   4.511   2.179   4.684
   58DOPC   C22 3100   4.505   2.203   4.533
   58DOPC   C23 3101   4.422   2.328   4.500
   58DOPC   C24 3102   4.410   2.353   4.350
   58DOPC   C25 3103   4.504   2.428   4.279
   58DOPC   C26 3104   4.625   2.492   4.348
   58DOPC   C27 3105   4.699   2.588   4.255
   58DOPC   C28 3106   4.614   2.711   4.224
   58DOPC   C29 3107   4.583   2.788   4.352
   58DOPC   C30 3108   4.491   2.908   4.327
   58DOPC   C31 3109   4.456   2.977   4.459
   58DOPC   C32 3110   5.143   2.110   5.051
   58DOPC   O33 3111   5.171   2.238   4.992
   58DOPC   C34 3112   5.300   2.260   4.956
   58DOPC   O35 3113   5.391   2.191   5.002
   58DOPC   C36 3114   5.326   2.392   4.884
   58DOPC   C37 3115   5.434   2.379   4.777
   58DOPC   C38 3116   5.458   2.513   4.706
   58DOPC   C39 3117   5.501   2.619   4.807
   58DOPC   C40 3118   5.523   2.754   4.739
   58DOPC   C41 3119   5.637   2.750   4.637
   58DOPC   C42 3120   5.656   2.888   4.574
   58DOPC   C43 3121   5.777   2.891   4.480
   58DOPC   C44 3122   5.812   3.010   4.417
   58DOPC   C45 3123   5.726   3.135   4.437
   58DOPC   C46 3124   5.795   3.260   4.385
   58DOPC   C47 3125   5.701   3.381   4.392
   58DOPC   C48 3126   5.648   3.400   4.535
   58DOPC   C49 3127   5.547   3.515   4.540
   58DOPC   C50 3128   5.482   3.526   4.678
   58DOPC   CA1 3129   5.377   3.637   4.680
   58DOPC   CA2 3130   5.305   3.641   4.815
   58DOPC   CA3 3131   4.355   3.090   4.439
   58DOPC   CA4 3132   4.319   3.156   4.572
   59DOPC    C1 3133   6.161   4.929   5.709
   59DOPC    C2 3134   6.007   4.768   5.795
   59DOPC    C3 3135   6.166   4.707   5.630
   59DOPC    N4 3136   6.076   4.814   5.674
   59DOPC    C5 3137   5.982   4.841   5.561
   59DOPC    C6 3138   5.868   4.945   5.579
   59DOPC    O7 3139   5.911   5.081   5.577
   59DOPC    P8 3140   5.784   5.174   5.575
   59DOPC    O9 3141   5.682   5.111   5.659
   59DOPC   O10 3142   5.842   5.306   5.601
   59DOPC   O11 3143   5.752   5.155   5.423
   59DOPC   C12 3144   5.841   5.236   5.348
   59DOPC   C13 3145   5.853   5.197   5.200
   59DOPC   O14 3146   5.932   5.295   5.126
   59DOPC   C15 3147   6.028   5.247   5.043
   59DOPC   O16 3148   6.073   5.134   5.066
   59DOPC   C17 3149   6.105   5.354   4.966
   59DOPC   C18 3150   6.233   5.306   4.897
   59DOPC   C19 3151   6.206   5.233   4.765
   59DOPC   C20 3152   6.337   5.185   4.703
   59DOPC   C21 3153   6.432   5.302   4.673
   59DOPC   C22 3154   6.569   5.251   4.627
   59DOPC   C23 3155   0.077   5.368   4.587
   59DOPC   C24 3156   0.220   5.322   4.557
   59DOPC   C25 3157   0.310   5.412   4.501
   59DOPC   C26 3158   0.262   5.553   4.465
   59DOPC   C27 3159   0.375   5.640   4.409
   59DOPC   C28 3160   0.438   5.578   4.285
   59DOPC   C29 3161   0.539   5.673   4.222
   59DOPC   C30 3162   0.470   5.801   4.174
   59DOPC   C31 3163   0.570   5.899   4.112
   59DOPC   C32 3164   5.709   5.179   5.150
   59DOPC   O33 3165   5.697   5.105   5.028
   59DOPC   C34 3166   5.572   5.086   4.980
   59DOPC   O35 3167   5.474   5.135   5.036
   59DOPC   C36 3168   5.562   4.995   4.857
   59DOPC   C37 3169   5.440   5.024   4.769
   59DOPC   C38 3170   5.439   4.926   4.652
   59DOPC   C39 3171   5.319   4.944   4.559
   59DOPC   C40 3172   5.324   4.838   4.449
   59DOPC   C41 3173   5.208   4.853   4.351
   59DOPC   C42 3174   5.212   4.741   4.247
   59DOPC   C43 3175   5.099   4.755   4.145
   59DOPC   C44 3176   5.081   4.657   4.047
   59DOPC   C45 3177   5.175   4.536   4.043
   59DOPC   C46 3178   5.135   4.438   3.933
   59DOPC   C47 3179   5.227   4.316   3.936
   59DOPC   C48 3180   5.190   4.215   3.827
   59DOPC   C49 3181   5.285   4.094   3.833
   59DOPC   C50 3182   5.252   3.992   3.724
   59DOPC   CA1 3183   5.348   3.873   3.731
   59DOPC   CA2 3184   5.317   3.770   3.623
   59DOPC   CA3 3185   0.497   6.018   4.049
   59DOPC   CA4 3186   0.412   6.092   4.153
   60DOPC    C1 3187   0.249   5.836   5.818
   60DOPC    C2 3188   0.256   5.839   6.053
   60DOPC    C3 3189   0.419   5.961   5.934
   60DOPC    N4 3190   0.340   5.836   5.933
   60DOPC    C5 3191   0.422   5.713   5.939
   60DOPC    C6 3192   0.547   5.697   5.850
   60DOPC    O7 3193   0.523   5.690   5.709
   60DOPC    P8 3194   0.660   5.643   5.649
   60DOPC    O9 3195   0.750   5.757   5.664
   60DOPC   O10 3196   0.691   5.513   5.711
   60DOPC   O11 3197   0.619   5.624   5.499
   60DOPC   C12 3198   0.697   5.708   5.416
   60DOPC   C13 3199   0.679   5.680   5.265
   60DOPC   O14 3200   0.788   5.732   5.182
   60DOPC   C15 3201   0.912   5.678   5.192
   60DOPC   O16 3202   0.935   5.586   5.271
   60DOPC   C17 3203   1.014   5.721   5.087
   60DOPC   C18 3204   1.025   5.609   4.983
   60DOPC   C19 3205   1.130   5.632   4.874
   60DOPC   C20 3206   1.129   5.507   4.785
   60DOPC   C21 3207   1.235   5.509   4.675
   60DOPC   C22 3208   1.228   5.376   4.600
   60DOPC   C23 3209   1.335   5.362   4.492
   60DOPC   C24 3210   1.321   5.467   4.382
   60DOPC   C25 3211   1.406   5.458   4.272
   60DOPC   C26 3212   1.507   5.343   4.270
   60DOPC   C27 3213   1.594   5.343   4.144
   60DOPC   C28 3214   1.690   5.224   4.149
   60DOPC   C29 3215   1.780   5.217   4.026
   60DOPC   C30 3216   1.875   5.097   4.038
   60DOPC   C31 3217   1.970   5.088   3.918
   60DOPC   C32 3218   0.539   5.734   5.233
   60DOPC   O33 3219   0.490   5.715   5.099
   60DOPC   C34 3220   0.368   5.768   5.078
   60DOPC   O35 3221   0.315   5.839   5.163
   60DOPC   C36 3222   0.311   5.757   4.936
   60DOPC   C37 3223   0.169   5.699   4.939
   60DOPC   C38 3224   0.107   5.698   4.800
   60DOPC   C39 3225   0.088   5.841   4.747
   60DOPC   C40 3226   0.036   5.836   4.603
   60DOPC   C41 3227   0.010   5.975   4.545
   60DOPC   C42 3228   6.556   5.961   4.397
   60DOPC   C43 3229   0.095   5.906   4.320
   60DOPC   C44 3230   0.076   5.844   4.197
   60DOPC   C45 3231   6.517   5.827   4.141
   60DOPC   C46 3232   6.518   5.738   4.016
   60DOPC   C47 3233   6.374   5.712   3.970
   60DOPC   C48 3234   6.367   5.616   3.852
   60DOPC   C49 3235   6.221   5.591   3.815
   60DOPC   C50 3236   6.207   5.491   3.700
   60DOPC   CA1 3237   6.060   5.464   3.670
   60DOPC   CA2 3238   6.043   5.362   3.558
   60DOPC   CA3 3239   2.065   4.970   3.935
   60DOPC   CA4 3240   2.162   4.960   3.818
   61DOPC    C1 3241   5.484   3.045   5.618
   61DOPC    C2 3242   5.577   2.885   5.767
   61DOPC    C3 3243   5.394   3.020   5.833
   61DOPC    N4 3244   5.451   2.945   5.720
   61DOPC    C5 3245   5.350   2.846   5.676
   61DOPC    C6 3246   5.387   2.744   5.565
   61DOPC    O7 3247   5.398   2.801   5.436
   61DOPC    P8 3248   5.491   2.712   5.347
   61DOPC    O9 3249   5.579   2.633   5.436
   61DOPC   O10 3250   5.408   2.645   5.246
   61DOPC   O11 3251   5.580   2.825   5.285
   61DOPC   C12 3252   5.526   2.856   5.157
   61DOPC   C13 3253   5.591   2.978   5.089
   61DOPC   O14 3254   5.521   3.027   4.969
   61DOPC   C15 3255   5.395   3.077   4.974
   61DOPC   O16 3256   5.326   3.068   5.075
   61DOPC   C17 3257   5.337   3.130   4.842
   61DOPC   C18 3258   5.259   3.020   4.769
   61DOPC   C19 3259   5.198   3.070   4.638
   61DOPC   C20 3260   5.304   3.127   4.544
   61DOPC   C21 3261   5.246   3.159   4.407
   61DOPC   C22 3262   5.351   3.228   4.320
   61DOPC   C23 3263   5.305   3.247   4.175
   61DOPC   C24 3264   5.410   3.330   4.099
   61DOPC   C25 3265   5.403   3.345   3.961
   61DOPC   C26 3266   5.297   3.272   3.879
   61DOPC   C27 3267   5.300   3.323   3.734
   61DOPC   C28 3268   5.438   3.306   3.671
   61DOPC   C29 3269   5.441   3.369   3.532
   61DOPC   C30 3270   5.581   3.364   3.470
   61DOPC   C31 3271   5.583   3.435   3.335
   61DOPC   C32 3272   5.739   2.939   5.069
   61DOPC   O33 3273   5.758   2.809   5.013
   61DOPC   C34 3274   5.887   2.772   4.990
   61DOPC   O35 3275   5.981   2.849   5.005
   61DOPC   C36 3276   5.904   2.628   4.940
   61DOPC   C37 3277   6.005   2.615   4.826
   61DOPC   C38 3278   6.008   2.471   4.775
   61DOPC   C39 3279   6.109   2.450   4.663
   61DOPC   C40 3280   6.081   2.539   4.542
   61DOPC   C41 3281   6.174   2.502   4.426
   61DOPC   C42 3282   6.152   2.592   4.304
   61DOPC   C43 3283   6.233   2.541   4.185
   61DOPC   C44 3284   6.234   2.612   4.065
   61DOPC   C45 3285   6.158   2.744   4.053
   61DOPC   C46 3286   6.161   2.796   3.909
   61DOPC   C47 3287   6.093   2.933   3.900
   61DOPC   C48 3288   5.951   2.926   3.957
   61DOPC   C49 3289   5.880   3.061   3.946
   61DOPC   C50 3290   5.744   3.056   4.016
   61DOPC   CA1 3291   5.656   2.945   3.958
   61DOPC   CA2 3292   5.524   2.935   4.036
   61DOPC   CA3 3293   5.723   3.437   3.275
   61DOPC   CA4 3294   5.724   3.510   3.140
   62DOPC    C1 3295   0.286   5.031   5.578
   62DOPC    C2 3296   0.238   4.956   5.355
   62DOPC    C3 3297   0.107   4.884   5.537
   62DOPC    N4 3298   0.244   4.916   5.496
   62DOPC    C5 3299   0.323   4.792   5.517
   62DOPC    C6 3300   0.477   4.800   5.503
   62DOPC    O7 3301   0.537   4.671   5.495
   62DOPC    P8 3302   0.691   4.687   5.475
   62DOPC    O9 3303   0.708   4.803   5.386
   62DOPC   O10 3304   0.754   4.671   5.607
   62DOPC   O11 3305   0.714   4.557   5.392
   62DOPC   C12 3306   0.659   4.573   5.263
   62DOPC   C13 3307   0.682   4.447   5.177
   62DOPC   O14 3308   0.652   4.466   5.036
   62DOPC   C15 3309   0.742   4.534   4.960
   62DOPC   O16 3310   0.843   4.585   5.009
   62DOPC   C17 3311   0.708   4.545   4.811
   62DOPC   C18 3312   0.832   4.565   4.724
   62DOPC   C19 3313   0.790   4.572   4.577
   62DOPC   C20 3314   0.688   4.685   4.560
   62DOPC   C21 3315   0.629   4.685   4.419
   62DOPC   C22 3316   0.734   4.715   4.312
   62DOPC   C23 3317   0.665   4.703   4.176
   62DOPC   C24 3318   0.753   4.747   4.058
   62DOPC   C25 3319   0.706   4.738   3.927
   62DOPC   C26 3320   0.566   4.684   3.895
   62DOPC   C27 3321   0.453   4.784   3.924
   62DOPC   C28 3322   0.316   4.717   3.908
   62DOPC   C29 3323   0.204   4.813   3.948
   62DOPC   C30 3324   0.068   4.744   3.938
   62DOPC   C31 3325   6.537   4.837   3.984
   62DOPC   C32 3326   0.607   4.334   5.250
   62DOPC   O33 3327   0.612   4.202   5.190
   62DOPC   C34 3328   0.733   4.141   5.183
   62DOPC   O35 3329   0.833   4.189   5.236
   62DOPC   C36 3330   0.736   4.003   5.115
   62DOPC   C37 3331   0.663   3.997   4.980
   62DOPC   C38 3332   0.724   4.092   4.876
   62DOPC   C39 3333   0.666   4.065   4.738
   62DOPC   C40 3334   0.732   4.156   4.634
   62DOPC   C41 3335   0.697   4.111   4.492
   62DOPC   C42 3336   0.769   4.196   4.388
   62DOPC   C43 3337   0.750   4.136   4.248
   62DOPC   C44 3338   0.809   4.196   4.138
   62DOPC   C45 3339   0.892   4.323   4.154
   62DOPC   C46 3340   0.962   4.358   4.023
   62DOPC   C47 3341   0.862   4.377   3.909
   62DOPC   C48 3342   0.937   4.406   3.778
   62DOPC   C49 3343   0.841   4.426   3.661
   62DOPC   C50 3344   0.921   4.450   3.533
   62DOPC   CA1 3345   0.829   4.475   3.413
   62DOPC   CA2 3346   0.912   4.495   3.286
   62DOPC   CA3 3347   6.401   4.768   3.975
   62DOPC   CA4 3348   6.289   4.861   4.021
   63DOPC    C1 3349   5.271   4.778   6.129
   63DOPC    C2 3350   5.342   4.958   6.265
   63DOPC    C3 3351   5.497   4.788   6.205
   63DOPC    N4 3352   5.384   4.868   6.156
   63DOPC    C5 3353   5.419   4.953   6.039
   63DOPC    C6 3354   5.450   4.884   5.904
   63DOPC    O7 3355   5.578   4.821   5.898
   63DOPC    P8 3356   5.578   4.715   5.782
   63DOPC    O9 3357   5.712   4.656   5.776
   63DOPC   O10 3358   5.461   4.630   5.811
   63DOPC   O11 3359   5.550   4.807   5.658
   63DOPC   C12 3360   5.437   4.767   5.581
   63DOPC   C13 3361   5.402   4.875   5.477
   63DOPC   O14 3362   5.274   4.855   5.408
   63DOPC   C15 3363   5.215   4.966   5.356
   63DOPC   O16 3364   5.261   5.078   5.377
   63DOPC   C17 3365   5.090   4.942   5.272
   63DOPC   C18 3366   5.115   4.978   5.125
   63DOPC   C19 3367   5.000   4.932   5.036
   63DOPC   C20 3368   5.022   4.983   4.893
   63DOPC   C21 3369   4.917   4.928   4.797
   63DOPC   C22 3370   4.933   4.994   4.660
   63DOPC   C23 3371   4.839   4.934   4.555
   63DOPC   C24 3372   4.851   5.011   4.424
   63DOPC   C25 3373   4.793   4.964   4.307
   63DOPC   C26 3374   4.718   4.831   4.305
   63DOPC   C27 3375   4.682   4.795   4.161
   63DOPC   C28 3376   4.615   4.658   4.150
   63DOPC   C29 3377   4.591   4.623   4.003
   63DOPC   C30 3378   4.724   4.621   3.927
   63DOPC   C31 3379   4.703   4.587   3.779
   63DOPC   C32 3380   5.529   4.886   5.389
   63DOPC   O33 3381   5.572   4.765   5.323
   63DOPC   C34 3382   5.688   4.779   5.254
   63DOPC   O35 3383   5.761   4.876   5.273
   63DOPC   C36 3384   5.729   4.665   5.161
   63DOPC   C37 3385   5.789   4.723   5.033
   63DOPC   C38 3386   5.846   4.617   4.939
   63DOPC   C39 3387   5.908   4.687   4.818
   63DOPC   C40 3388   6.015   4.785   4.865
   63DOPC   C41 3389   6.076   4.865   4.750
   63DOPC   C42 3390   6.145   4.775   4.648
   63DOPC   C43 3391   6.215   4.860   4.541
   63DOPC   C44 3392   6.290   4.799   4.442
   63DOPC   C45 3393   6.300   4.647   4.436
   63DOPC   C46 3394   6.406   4.603   4.334
   63DOPC   C47 3395   6.407   4.451   4.320
   63DOPC   C48 3396   6.522   4.405   4.229
   63DOPC   C49 3397   0.074   4.444   4.291
   63DOPC   C50 3398   0.192   4.398   4.206
   63DOPC   CA1 3399   0.324   4.437   4.273
   63DOPC   CA2 3400   0.443   4.392   4.189
   63DOPC   CA3 3401   4.639   4.450   3.762
   63DOPC   CA4 3402   4.620   4.416   3.614
   64DOPC    C1 3403   5.958   6.399   5.745
   64DOPC    C2 3404   6.064   6.218   5.637
   64DOPC    C3 3405   5.947   6.384   5.510
   64DOPC    N4 3406   5.945   6.304   5.634
   64DOPC    C5 3407   5.816   6.233   5.649
   64DOPC    C6 3408   5.797   6.103   5.568
   64DOPC    O7 3409   5.666   6.048   5.576
   64DOPC    P8 3410   5.681   5.893   5.557
   64DOPC    O9 3411   5.805   5.847   5.620
   64DOPC   O10 3412   5.551   5.827   5.579
   64DOPC   O11 3413   5.709   5.895   5.404
   64DOPC   C12 3414   5.589   5.909   5.329
   64DOPC   C13 3415   5.617   5.965   5.189
   64DOPC   O14 3416   5.497   5.981   5.107
   64DOPC   C15 3417   5.443   6.105   5.098
   64DOPC   O16 3418   5.497   6.202   5.152
   64DOPC   C17 3419   5.319   6.117   5.009
   64DOPC   C18 3420   5.355   6.174   4.872
   64DOPC   C19 3421   5.231   6.176   4.782
   64DOPC   C20 3422   5.261   6.244   4.648
   64DOPC   C21 3423   5.307   6.389   4.670
   64DOPC   C22 3424   5.323   6.463   4.538
   64DOPC   C23 3425   5.429   6.400   4.448
   64DOPC   C24 3426   5.568   6.403   4.511
   64DOPC   C25 3427   5.677   6.355   4.438
   64DOPC   C26 3428   5.653   6.300   4.297
   64DOPC   C27 3429   5.784   6.257   4.232
   64DOPC   C28 3430   5.760   6.202   4.091
   64DOPC   C29 3431   5.667   6.080   4.095
   64DOPC   C30 3432   5.643   6.025   3.955
   64DOPC   C31 3433   5.775   5.982   3.889
   64DOPC   C32 3434   5.724   5.874   5.128
   64DOPC   O33 3435   5.679   5.742   5.097
   64DOPC   C34 3436   5.774   5.658   5.050
   64DOPC   O35 3437   5.892   5.674   5.081
   64DOPC   C36 3438   5.721   5.530   4.984
   64DOPC   C37 3439   5.789   5.506   4.849
   64DOPC   C38 3440   5.738   5.379   4.783
   64DOPC   C39 3441   5.818   5.350   4.655
   64DOPC   C40 3442   5.767   5.224   4.585
   64DOPC   C41 3443   5.850   5.196   4.459
   64DOPC   C42 3444   5.794   5.078   4.381
   64DOPC   C43 3445   5.792   4.948   4.463
   64DOPC   C44 3446   5.750   4.831   4.401
   64DOPC   C45 3447   5.707   4.837   4.254
   64DOPC   C46 3448   5.674   4.699   4.198
   64DOPC   C47 3449   5.638   4.711   4.050
   64DOPC   C48 3450   5.613   4.574   3.985
   64DOPC   C49 3451   5.581   4.591   3.837
   64DOPC   C50 3452   5.561   4.455   3.768
   64DOPC   CA1 3453   5.529   4.474   3.620
   64DOPC   CA2 3454   5.508   4.340   3.550
   64DOPC   CA3 3455   5.750   5.925   3.749
   64DOPC   CA4 3456   5.658   5.803   3.755
   65DOPC    C1 3457   4.538   2.848   1.353
   65DOPC    C2 3458   4.486   2.744   1.559
   65DOPC    C3 3459   4.673   2.672   1.426
   65DOPC    N4 3460   4.534   2.719   1.423
   65DOPC    C5 3461   4.447   2.626   1.345
   65DOPC    C6 3462   4.402   2.490   1.406
   65DOPC    O7 3463   4.500   2.386   1.410
   65DOPC    P8 3464   4.421   2.249   1.413
   65DOPC    O9 3465   4.299   2.267   1.332
   65DOPC   O10 3466   4.520   2.142   1.390
   65DOPC   O11 3467   4.383   2.260   1.565
   65DOPC   C12 3468   4.483   2.197   1.645
   65DOPC   C13 3469   4.453   2.205   1.796
   65DOPC   O14 3470   4.348   2.115   1.846
   65DOPC   C15 3471   4.371   1.983   1.863
   65DOPC   O16 3472   4.465   1.924   1.808
   65DOPC   C17 3473   4.265   1.908   1.945
   65DOPC   C18 3474   4.260   1.964   2.087
   65DOPC   C19 3475   4.154   1.893   2.172
   65DOPC   C20 3476   4.148   1.954   2.312
   65DOPC   C21 3477   4.284   1.943   2.382
   65DOPC   C22 3478   4.278   2.004   2.522
   65DOPC   C23 3479   4.413   1.991   2.594
   65DOPC   C24 3480   4.405   2.049   2.735
   65DOPC   C25 3481   4.518   2.051   2.817
   65DOPC   C26 3482   4.652   1.998   2.765
   65DOPC   C27 3483   4.753   1.987   2.879
   65DOPC   C28 3484   4.889   1.938   2.830
   65DOPC   C29 3485   4.981   1.907   2.948
   65DOPC   C30 3486   5.000   2.028   3.039
   65DOPC   C31 3487   5.086   1.991   3.160
   65DOPC   C32 3488   4.421   2.352   1.823
   65DOPC   O33 3489   4.528   2.434   1.873
   65DOPC   C34 3490   4.485   2.558   1.905
   65DOPC   O35 3491   4.386   2.606   1.849
   65DOPC   C36 3492   4.580   2.646   1.987
   65DOPC   C37 3493   4.506   2.703   2.108
   65DOPC   C38 3494   4.590   2.804   2.186
   65DOPC   C39 3495   4.511   2.852   2.308
   65DOPC   C40 3496   4.584   2.964   2.383
   65DOPC   C41 3497   4.718   2.919   2.441
   65DOPC   C42 3498   4.705   2.814   2.551
   65DOPC   C43 3499   4.843   2.784   2.609
   65DOPC   C44 3500   4.864   2.688   2.708
   65DOPC   C45 3501   4.749   2.607   2.769
   65DOPC   C46 3502   4.808   2.496   2.857
   65DOPC   C47 3503   4.700   2.413   2.927
   65DOPC   C48 3504   4.620   2.497   3.026
   65DOPC   C49 3505   4.516   2.411   3.098
   65DOPC   C50 3506   4.437   2.495   3.199
   65DOPC   CA1 3507   4.331   2.411   3.271
   65DOPC   CA2 3508   4.251   2.496   3.370
   65DOPC   CA3 3509   5.105   2.112   3.252
   65DOPC   CA4 3510   4.970   2.164   3.303
   66DOPC    C1 3511   3.661   5.866   1.939
   66DOPC    C2 3512   3.765   5.855   2.153
   66DOPC    C3 3513   3.531   5.848   2.137
   66DOPC    N4 3514   3.651   5.909   2.079
   66DOPC    C5 3515   3.640   6.056   2.095
   66DOPC    C6 3516   3.739   6.147   2.018
   66DOPC    O7 3517   3.876   6.133   2.058
   66DOPC    P8 3518   3.961   6.233   1.974
   66DOPC    O9 3519   4.104   6.226   2.008
   66DOPC   O10 3520   3.916   6.224   1.834
   66DOPC   O11 3521   3.904   6.365   2.033
   66DOPC   C12 3522   3.963   6.390   2.160
   66DOPC   C13 3523   3.898   0.035   2.228
   66DOPC   O14 3524   3.967   0.078   2.349
   66DOPC   C15 3525   4.091   0.132   2.344
   66DOPC   O16 3526   4.141   0.168   2.237
   66DOPC   C17 3527   4.157   0.154   2.480
   66DOPC   C18 3528   4.302   0.103   2.486
   66DOPC   C19 3529   4.313   6.428   2.461
   66DOPC   C20 3530   4.458   6.383   2.482
   66DOPC   C21 3531   4.501   6.410   2.626
   66DOPC   C22 3532   4.648   6.374   2.647
   66DOPC   C23 3533   4.691   6.394   2.792
   66DOPC   C24 3534   4.839   6.360   2.807
   66DOPC   C25 3535   4.902   6.359   2.931
   66DOPC   C26 3536   4.827   6.391   3.060
   66DOPC   C27 3537   4.923   6.374   3.178
   66DOPC   C28 3538   4.857   6.407   3.312
   66DOPC   C29 3539   4.957   6.384   3.425
   66DOPC   C30 3540   4.896   6.415   3.562
   66DOPC   C31 3541   4.999   6.388   3.673
   66DOPC   C32 3542   3.751   6.468   2.250
   66DOPC   O33 3543   3.735   6.364   2.348
   66DOPC   C34 3544   3.610   6.316   2.367
   66DOPC   O35 3545   3.528   6.315   2.275
   66DOPC   C36 3546   3.586   6.243   2.499
   66DOPC   C37 3547   3.438   6.237   2.535
   66DOPC   C38 3548   3.419   6.190   2.679
   66DOPC   C39 3549   3.270   6.171   2.710
   66DOPC   C40 3550   3.247   6.135   2.856
   66DOPC   C41 3551   3.286   6.251   2.949
   66DOPC   C42 3552   3.253   6.217   3.094
   66DOPC   C43 3553   3.277   6.338   3.185
   66DOPC   C44 3554   3.256   6.327   3.322
   66DOPC   C45 3555   3.210   6.193   3.381
   66DOPC   C46 3556   3.194   6.202   3.533
   66DOPC   C47 3557   3.084   6.300   3.573
   66DOPC   C48 3558   3.072   6.309   3.725
   66DOPC   C49 3559   3.043   6.171   3.786
   66DOPC   C50 3560   3.034   6.179   3.938
   66DOPC   CA1 3561   3.013   6.041   4.000
   66DOPC   CA2 3562   3.006   6.049   4.152
   66DOPC   CA3 3563   4.940   6.417   3.811
   66DOPC   CA4 3564   5.044   6.390   3.920
   67DOPC    C1 3565   6.312   6.146   1.967
   67DOPC    C2 3566   6.114   6.206   2.074
   67DOPC    C3 3567   6.141   6.252   1.842
   67DOPC    N4 3568   6.209   6.250   1.972
   67DOPC    C5 3569   6.260   6.383   2.011
   67DOPC    C6 3570   6.354   6.460   1.914
   67DOPC    O7 3571   6.486   6.406   1.902
   67DOPC    P8 3572   6.569   0.018   1.802
   67DOPC    O9 3573   0.121   6.439   1.775
   67DOPC   O10 3574   6.475   0.053   1.694
   67DOPC   O11 3575   0.004   0.141   1.897
   67DOPC   C12 3576   0.087   0.098   2.005
   67DOPC   C13 3577   0.136   0.210   2.097
   67DOPC   O14 3578   0.216   0.162   2.210
   67DOPC   C15 3579   0.337   0.104   2.188
   67DOPC   O16 3580   0.389   0.105   2.076
   67DOPC   C17 3581   0.410   0.048   2.310
   67DOPC   C18 3582   0.441   6.375   2.290
   67DOPC   C19 3583   0.493   6.314   2.420
   67DOPC   C20 3584   0.391   6.339   2.531
   67DOPC   C21 3585   0.426   6.264   2.659
   67DOPC   C22 3586   0.319   6.291   2.765
   67DOPC   C23 3587   0.329   6.434   2.818
   67DOPC   C24 3588   0.211   6.468   2.909
   67DOPC   C25 3589   0.229   0.089   3.008
   67DOPC   C26 3590   0.369   0.148   3.026
   67DOPC   C27 3591   0.375   0.244   3.145
   67DOPC   C28 3592   0.520   0.282   3.172
   67DOPC   C29 3593   0.533   0.378   3.291
   67DOPC   C30 3594   0.681   0.403   3.319
   67DOPC   C31 3595   0.750   0.271   3.357
   67DOPC   C32 3596   0.009   0.291   2.134
   67DOPC   O33 3597   6.478   0.215   2.182
   67DOPC   C34 3598   6.363   0.285   2.191
   67DOPC   O35 3599   6.345   0.386   2.124
   67DOPC   C36 3600   6.243   0.213   2.255
   67DOPC   C37 3601   6.286   0.110   2.360
   67DOPC   C38 3602   6.164   0.046   2.428
   67DOPC   C39 3603   6.078   0.154   2.493
   67DOPC   C40 3604   5.970   0.093   2.583
   67DOPC   C41 3605   5.889   0.205   2.649
   67DOPC   C42 3606   5.802   0.153   2.763
   67DOPC   C43 3607   5.726   0.269   2.827
   67DOPC   C44 3608   5.663   0.254   2.950
   67DOPC   C45 3609   5.668   0.121   3.026
   67DOPC   C46 3610   5.613   0.141   3.167
   67DOPC   C47 3611   5.614   0.012   3.250
   67DOPC   C48 3612   5.566   0.044   3.392
   67DOPC   C49 3613   5.561   6.395   3.481
   67DOPC   C50 3614   5.462   6.292   3.427
   67DOPC   CA1 3615   5.452   6.172   3.522
   67DOPC   CA2 3616   5.403   6.217   3.660
   67DOPC   CA3 3617   0.902   0.290   3.368
   67DOPC   CA4 3618   0.960   0.332   3.233
   68DOPC    C1 3619   0.781   6.090   1.786
   68DOPC    C2 3620   0.761   6.144   1.557
   68DOPC    C3 3621   0.957   6.033   1.641
   68DOPC    N4 3622   0.856   6.137   1.669
   68DOPC    C5 3623   0.916   6.267   1.706
   68DOPC    C6 3624   0.982   6.355   1.596
   68DOPC    O7 3625   1.097   6.299   1.535
   68DOPC    P8 3626   1.207   6.410   1.525
   68DOPC    O9 3627   1.325   6.353   1.458
   68DOPC   O10 3628   1.146   0.058   1.475
   68DOPC   O11 3629   1.232   6.434   1.677
   68DOPC   C12 3630   1.358   6.380   1.717
   68DOPC   C13 3631   1.384   6.390   1.868
   68DOPC   O14 3632   1.305   6.298   1.951
   68DOPC   C15 3633   1.337   6.167   1.954
   68DOPC   O16 3634   1.426   6.122   1.882
   68DOPC   C17 3635   1.251   6.081   2.048
   68DOPC   C18 3636   1.325   5.956   2.097
   68DOPC   C19 3637   1.253   5.896   2.218
   68DOPC   C20 3638   1.329   5.773   2.269
   68DOPC   C21 3639   1.278   5.730   2.407
   68DOPC   C22 3640   1.130   5.692   2.408
   68DOPC   C23 3641   1.086   5.659   2.550
   68DOPC   C24 3642   0.937   5.622   2.556
   68DOPC   C25 3643   0.876   5.604   2.679
   68DOPC   C26 3644   0.957   5.620   2.808
   68DOPC   C27 3645   0.865   5.618   2.930
   68DOPC   C28 3646   0.945   5.633   3.060
   68DOPC   C29 3647   0.850   5.642   3.180
   68DOPC   C30 3648   0.926   5.654   3.312
   68DOPC   C31 3649   1.012   5.529   3.338
   68DOPC   C32 3650   1.364   0.063   1.902
   68DOPC   O33 3651   1.465   0.149   1.847
   68DOPC   C34 3652   1.441   0.281   1.864
   68DOPC   O35 3653   1.327   0.322   1.882
   68DOPC   C36 3654   1.556   0.376   1.830
   68DOPC   C37 3655   1.602   0.459   1.950
   68DOPC   C38 3656   1.665   0.374   2.060
   68DOPC   C39 3657   1.712   0.460   2.177
   68DOPC   C40 3658   1.772   0.373   2.287
   68DOPC   C41 3659   1.668   0.273   2.338
   68DOPC   C42 3660   1.727   0.178   2.442
   68DOPC   C43 3661   1.619   0.079   2.487
   68DOPC   C44 3662   1.649   6.450   2.573
   68DOPC   C45 3663   1.790   6.430   2.628
   68DOPC   C46 3664   1.796   6.300   2.709
   68DOPC   C47 3665   1.933   6.278   2.773
   68DOPC   C48 3666   1.933   6.146   2.850
   68DOPC   C49 3667   1.821   6.145   2.954
   68DOPC   C50 3668   1.816   6.013   3.031
   68DOPC   CA1 3669   1.703   6.014   3.134
   68DOPC   CA2 3670   1.698   5.883   3.212
   68DOPC   CA3 3671   1.085   5.540   3.472
   68DOPC   CA4 3672   1.166   5.413   3.500
   69DOPC    C1 3673   5.150   3.496   1.360
   69DOPC    C2 3674   5.039   3.394   1.169
   69DOPC    C3 3675   4.916   3.488   1.340
   69DOPC    N4 3676   5.038   3.412   1.314
   69DOPC    C5 3677   5.030   3.282   1.386
   69DOPC    C6 3678   5.154   3.189   1.376
   69DOPC    O7 3679   5.133   3.063   1.439
   69DOPC    P8 3680   5.260   2.973   1.424
   69DOPC    O9 3681   5.221   2.837   1.462
   69DOPC   O10 3682   5.319   3.010   1.294
   69DOPC   O11 3683   5.347   3.036   1.538
   69DOPC   C12 3684   5.295   2.989   1.662
   69DOPC   C13 3685   5.376   3.035   1.785
   69DOPC   O14 3686   5.337   2.966   1.909
   69DOPC   C15 3687   5.401   2.989   2.026
   69DOPC   O16 3688   5.512   3.042   2.030
   69DOPC   C17 3689   5.341   2.918   2.148
   69DOPC   C18 3690   5.429   2.800   2.191
   69DOPC   C19 3691   5.372   2.730   2.314
   69DOPC   C20 3692   5.354   2.829   2.429
   69DOPC   C21 3693   5.308   2.758   2.556
   69DOPC   C22 3694   5.272   2.859   2.665
   69DOPC   C23 3695   5.233   2.788   2.795
   69DOPC   C24 3696   5.176   2.889   2.895
   69DOPC   C25 3697   5.143   2.848   3.024
   69DOPC   C26 3698   5.169   2.704   3.067
   69DOPC   C27 3699   5.122   2.682   3.211
   69DOPC   C28 3700   5.164   2.544   3.263
   69DOPC   C29 3701   5.317   2.532   3.261
   69DOPC   C30 3702   5.363   2.401   3.325
   69DOPC   C31 3703   5.516   2.393   3.329
   69DOPC   C32 3704   5.366   3.189   1.781
   69DOPC   O33 3705   5.232   3.238   1.791
   69DOPC   C34 3706   5.216   3.371   1.777
   69DOPC   O35 3707   5.295   3.436   1.707
   69DOPC   C36 3708   5.083   3.428   1.825
   69DOPC   C37 3709   5.082   3.431   1.978
   69DOPC   C38 3710   5.014   3.557   2.032
   69DOPC   C39 3711   5.036   3.568   2.183
   69DOPC   C40 3712   4.989   3.704   2.233
   69DOPC   C41 3713   5.019   3.722   2.382
   69DOPC   C42 3714   4.979   3.864   2.426
   69DOPC   C43 3715   5.007   3.887   2.574
   69DOPC   C44 3716   4.980   4.011   2.630
   69DOPC   C45 3717   4.925   4.123   2.541
   69DOPC   C46 3718   4.896   4.249   2.622
   69DOPC   C47 3719   4.791   4.221   2.730
   69DOPC   C48 3720   4.757   4.348   2.808
   69DOPC   C49 3721   4.649   4.320   2.913
   69DOPC   C50 3722   4.613   4.447   2.990
   69DOPC   CA1 3723   4.502   4.419   3.092
   69DOPC   CA2 3724   4.465   4.546   3.169
   69DOPC   CA3 3725   5.562   2.265   3.398
   69DOPC   CA4 3726   5.715   2.256   3.401
   70DOPC    C1 3727   4.832   4.942   1.618
   70DOPC    C2 3728   4.692   4.913   1.806
   70DOPC    C3 3729   4.891   5.048   1.822
   70DOPC    N4 3730   4.778   5.010   1.736
   70DOPC    C5 3731   4.697   5.126   1.689
   70DOPC    C6 3732   4.653   5.235   1.790
   70DOPC    O7 3733   4.576   5.187   1.900
   70DOPC    P8 3734   4.566   5.303   2.004
   70DOPC    O9 3735   4.530   5.422   1.926
   70DOPC   O10 3736   4.475   5.242   2.103
   70DOPC   O11 3737   4.716   5.297   2.048
   70DOPC   C12 3738   4.723   5.221   2.168
   70DOPC   C13 3739   4.863   5.166   2.199
   70DOPC   O14 3740   4.860   5.054   2.293
   70DOPC   C15 3741   4.816   4.935   2.246
   70DOPC   O16 3742   4.820   4.911   2.126
   70DOPC   C17 3743   4.787   4.827   2.350
   70DOPC   C18 3744   4.644   4.838   2.405
   70DOPC   C19 3745   4.615   4.723   2.502
   70DOPC   C20 3746   4.475   4.734   2.562
   70DOPC   C21 3747   4.444   4.612   2.649
   70DOPC   C22 3748   4.303   4.619   2.707
   70DOPC   C23 3749   4.287   4.736   2.805
   70DOPC   C24 3750   4.144   4.741   2.858
   70DOPC   C25 3751   4.109   4.828   2.961
   70DOPC   C26 3752   4.212   4.920   3.025
   70DOPC   C27 3753   4.149   4.998   3.140
   70DOPC   C28 3754   4.251   5.087   3.212
   70DOPC   C29 3755   4.186   5.159   3.330
   70DOPC   C30 3756   4.288   5.245   3.405
   70DOPC   C31 3757   4.222   5.317   3.523
   70DOPC   C32 3758   4.952   5.287   2.232
   70DOPC   O33 3759   4.899   5.377   2.330
   70DOPC   C34 3760   4.973   5.487   2.354
   70DOPC   O35 3761   5.079   5.508   2.296
   70DOPC   C36 3762   4.921   5.582   2.463
   70DOPC   C37 3763   4.865   5.502   2.582
   70DOPC   C38 3764   4.790   5.593   2.679
   70DOPC   C39 3765   4.719   5.509   2.785
   70DOPC   C40 3766   4.628   5.597   2.871
   70DOPC   C41 3767   4.542   5.512   2.964
   70DOPC   C42 3768   4.446   5.599   3.044
   70DOPC   C43 3769   4.353   5.513   3.130
   70DOPC   C44 3770   4.256   5.575   3.208
   70DOPC   C45 3771   4.246   5.727   3.209
   70DOPC   C46 3772   4.127   5.775   3.293
   70DOPC   C47 3773   4.123   5.927   3.296
   70DOPC   C48 3774   4.002   5.978   3.375
   70DOPC   C49 3775   4.002   6.131   3.381
   70DOPC   C50 3776   4.003   6.190   3.240
   70DOPC   CA1 3777   4.002   6.343   3.245
   70DOPC   CA2 3778   4.124   6.397   3.320
   70DOPC   CA3 3779   4.324   5.403   3.599
   70DOPC   CA4 3780   4.257   5.475   3.716
   71DOPC    C1 3781   1.047   0.247   1.738
   71DOPC    C2 3782   0.911   0.446   1.731
   71DOPC    C3 3783   1.122   0.442   1.628
   71DOPC    N4 3784   1.003   0.360   1.655
   71DOPC    C5 3785   0.946   0.319   1.525
   71DOPC    C6 3786   0.839   0.206   1.521
   71DOPC    O7 3787   0.719   0.234   1.592
   71DOPC    P8 3788   0.642   0.100   1.618
   71DOPC    O9 3789   0.499   0.131   1.636
   71DOPC   O10 3790   0.690   6.475   1.522
   71DOPC   O11 3791   0.712   0.070   1.755
   71DOPC   C12 3792   0.647   0.150   1.853
   71DOPC   C13 3793   0.714   0.148   1.991
   71DOPC   O14 3794   0.833   0.233   1.997
   71DOPC   C15 3795   0.841   0.320   2.100
   71DOPC   O16 3796   0.738   0.376   2.140
   71DOPC   C17 3797   0.979   0.381   2.123
   71DOPC   C18 3798   1.091   0.276   2.122
   71DOPC   C19 3799   1.092   0.192   2.250
   71DOPC   C20 3800   1.199   0.083   2.239
   71DOPC   C21 3801   1.211   0.003   2.368
   71DOPC   C22 3802   1.303   6.359   2.348
   71DOPC   C23 3803   1.320   6.279   2.477
   71DOPC   C24 3804   1.405   6.155   2.451
   71DOPC   C25 3805   1.449   6.075   2.556
   71DOPC   C26 3806   1.417   6.113   2.700
   71DOPC   C27 3807   1.470   6.007   2.797
   71DOPC   C28 3808   1.406   5.871   2.767
   71DOPC   C29 3809   1.450   5.766   2.870
   71DOPC   C30 3810   1.381   5.633   2.844
   71DOPC   C31 3811   1.419   5.531   2.951
   71DOPC   C32 3812   0.740   6.475   2.020
   71DOPC   O33 3813   0.792   6.449   2.151
   71DOPC   C34 3814   0.836   6.323   2.173
   71DOPC   O35 3815   0.841   6.240   2.082
   71DOPC   C36 3816   0.893   6.299   2.313
   71DOPC   C37 3817   0.862   6.161   2.371
   71DOPC   C38 3818   0.898   6.158   2.519
   71DOPC   C39 3819   0.863   6.022   2.580
   71DOPC   C40 3820   0.872   6.022   2.733
   71DOPC   C41 3821   1.013   6.047   2.785
   71DOPC   C42 3822   1.013   6.042   2.938
   71DOPC   C43 3823   1.155   6.057   2.993
   71DOPC   C44 3824   1.179   6.055   3.130
   71DOPC   C45 3825   1.064   6.041   3.230
   71DOPC   C46 3826   1.119   6.048   3.373
   71DOPC   C47 3827   1.007   6.041   3.477
   71DOPC   C48 3828   1.065   6.056   3.618
   71DOPC   C49 3829   0.955   6.056   3.724
   71DOPC   C50 3830   1.015   6.075   3.863
   71DOPC   CA1 3831   0.905   6.083   3.970
   71DOPC   CA2 3832   0.965   6.105   4.109
   71DOPC   CA3 3833   1.379   5.581   3.090
   71DOPC   CA4 3834   1.420   5.480   3.198
   72DOPC    C1 3835   6.092   1.861   1.531
   72DOPC    C2 3836   6.040   2.037   1.383
   72DOPC    C3 3837   6.006   2.068   1.615
   72DOPC    N4 3838   6.096   2.007   1.515
   72DOPC    C5 3839   6.234   2.061   1.520
   72DOPC    C6 3840   6.316   2.045   1.651
   72DOPC    O7 3841   6.290   2.148   1.746
   72DOPC    P8 3842   6.327   2.096   1.889
   72DOPC    O9 3843   6.441   2.004   1.880
   72DOPC   O10 3844   6.316   2.206   1.986
   72DOPC   O11 3845   6.205   1.998   1.901
   72DOPC   C12 3846   6.117   2.039   2.005
   72DOPC   C13 3847   6.016   1.928   2.037
   72DOPC   O14 3848   5.901   1.971   2.117
   72DOPC   C15 3849   5.791   1.890   2.119
   72DOPC   O16 3850   5.766   1.823   2.019
   72DOPC   C17 3851   5.685   1.912   2.227
   72DOPC   C18 3852   5.738   1.919   2.371
   72DOPC   C19 3853   5.830   1.803   2.410
   72DOPC   C20 3854   5.857   1.809   2.560
   72DOPC   C21 3855   5.912   1.945   2.601
   72DOPC   C22 3856   5.920   1.955   2.754
   72DOPC   C23 3857   5.953   2.097   2.800
   72DOPC   C24 3858   6.093   2.141   2.756
   72DOPC   C25 3859   6.135   2.270   2.790
   72DOPC   C26 3860   6.035   2.362   2.861
   72DOPC   C27 3861   6.105   2.479   2.931
   72DOPC   C28 3862   6.002   2.571   2.995
   72DOPC   C29 3863   6.068   2.666   3.095
   72DOPC   C30 3864   6.177   2.751   3.030
   72DOPC   C31 3865   6.246   2.835   3.138
   72DOPC   C32 3866   6.103   1.815   2.096
   72DOPC   O33 3867   6.183   1.858   2.208
   72DOPC   C34 3868   6.272   1.769   2.255
   72DOPC   O35 3869   6.304   1.669   2.189
   72DOPC   C36 3870   6.347   1.810   2.382
   72DOPC   C37 3871   6.279   1.753   2.506
   72DOPC   C38 3872   6.339   1.809   2.635
   72DOPC   C39 3873   6.489   1.780   2.647
   72DOPC   C40 3874   6.545   1.833   2.779
   72DOPC   C41 3875   6.475   1.766   2.897
   72DOPC   C42 3876   6.523   1.821   3.032
   72DOPC   C43 3877   6.452   1.748   3.146
   72DOPC   C44 3878   6.473   1.783   3.279
   72DOPC   C45 3879   6.567   1.898   3.316
   72DOPC   C46 3880   6.571   1.915   3.468
   72DOPC   C47 3881   0.080   2.032   3.509
   72DOPC   C48 3882   0.085   2.046   3.661
   72DOPC   C49 3883   0.141   1.919   3.725
   72DOPC   C50 3884   0.146   1.930   3.878
   72DOPC   CA1 3885   0.201   1.802   3.940
   72DOPC   CA2 3886   0.205   1.811   4.092
   72DOPC   CA3 3887   6.305   2.744   3.246
   72DOPC   CA4 3888   6.363   2.825   3.361
   73DOPC    C1 3889   0.740   4.246   1.444
   73DOPC    C2 3890   0.635   4.459   1.488
   73DOPC    C3 3891   0.592   4.342   1.290
   73DOPC    N4 3892   0.698   4.374   1.385
   73DOPC    C5 3893   0.810   4.440   1.313
   73DOPC    C6 3894   0.941   4.471   1.391
   73DOPC    O7 3895   0.924   4.572   1.491
   73DOPC    P8 3896   1.054   4.595   1.575
   73DOPC    O9 3897   1.169   4.576   1.487
   73DOPC   O10 3898   1.037   4.720   1.652
   73DOPC   O11 3899   1.041   4.475   1.674
   73DOPC   C12 3900   0.932   4.499   1.764
   73DOPC   C13 3901   0.919   4.390   1.872
   73DOPC   O14 3902   0.789   4.381   1.938
   73DOPC   C15 3903   0.688   4.313   1.880
   73DOPC   O16 3904   0.703   4.259   1.770
   73DOPC   C17 3905   0.561   4.294   1.963
   73DOPC   C18 3906   0.592   4.284   2.112
   73DOPC   C19 3907   0.467   4.249   2.192
   73DOPC   C20 3908   0.499   4.250   2.342
   73DOPC   C21 3909   0.374   4.214   2.422
   73DOPC   C22 3910   0.400   4.232   2.572
   73DOPC   C23 3911   0.273   4.199   2.650
   73DOPC   C24 3912   0.289   4.232   2.799
   73DOPC   C25 3913   0.180   4.211   2.883
   73DOPC   C26 3914   0.052   4.152   2.823
   73DOPC   C27 3915   6.524   4.141   2.928
   73DOPC   C28 3916   6.399   4.076   2.868
   73DOPC   C29 3917   6.349   4.156   2.748
   73DOPC   C30 3918   6.226   4.089   2.687
   73DOPC   C31 3919   6.183   4.162   2.560
   73DOPC   C32 3920   1.039   4.409   1.966
   73DOPC   O33 3921   1.056   4.543   2.016
   73DOPC   C34 3922   1.164   4.562   2.095
   73DOPC   O35 3923   1.249   4.474   2.109
   73DOPC   C36 3924   1.183   4.704   2.151
   73DOPC   C37 3925   1.184   4.705   2.304
   73DOPC   C38 3926   1.199   4.848   2.357
   73DOPC   C39 3927   1.193   4.852   2.509
   73DOPC   C40 3928   1.308   4.774   2.573
   73DOPC   C41 3929   1.291   4.767   2.725
   73DOPC   C42 3930   1.407   4.693   2.791
   73DOPC   C43 3931   1.383   4.669   2.940
   73DOPC   C44 3932   1.316   4.555   2.986
   73DOPC   C45 3933   1.269   4.448   2.888
   73DOPC   C46 3934   1.203   4.330   2.960
   73DOPC   C47 3935   1.302   4.260   3.054
   73DOPC   C48 3936   1.237   4.139   3.121
   73DOPC   C49 3937   1.336   4.069   3.213
   73DOPC   C50 3938   1.271   3.948   3.282
   73DOPC   CA1 3939   1.370   3.883   3.379
   73DOPC   CA2 3940   1.306   3.762   3.449
   73DOPC   CA3 3941   6.063   4.092   2.495
   73DOPC   CA4 3942   6.026   4.160   2.363
   74DOPC    C1 3943   4.945   5.778   1.411
   74DOPC    C2 3944   5.140   5.646   1.365
   74DOPC    C3 3945   5.161   5.875   1.425
   74DOPC    N4 3946   5.085   5.752   1.450
   74DOPC    C5 3947   5.099   5.721   1.594
   74DOPC    C6 3948   5.021   5.600   1.651
   74DOPC    O7 3949   5.061   5.566   1.784
   74DOPC    P8 3950   4.966   5.455   1.841
   74DOPC    O9 3951   4.923   5.377   1.723
   74DOPC   O10 3952   5.038   5.392   1.952
   74DOPC   O11 3953   4.851   5.550   1.886
   74DOPC   C12 3954   4.890   5.621   2.002
   74DOPC   C13 3955   4.797   5.740   2.030
   74DOPC   O14 3956   4.856   5.845   2.112
   74DOPC   C15 3957   4.925   5.945   2.053
   74DOPC   O16 3958   4.948   5.944   1.932
   74DOPC   C17 3959   4.984   6.049   2.148
   74DOPC   C18 3960   5.077   5.982   2.249
   74DOPC   C19 3961   5.140   6.084   2.344
   74DOPC   C20 3962   5.238   6.014   2.439
   74DOPC   C21 3963   5.166   5.911   2.527
   74DOPC   C22 3964   5.266   5.834   2.612
   74DOPC   C23 3965   5.196   5.743   2.713
   74DOPC   C24 3966   5.297   5.663   2.794
   74DOPC   C25 3967   5.254   5.592   2.906
   74DOPC   C26 3968   5.107   5.599   2.946
   74DOPC   C27 3969   5.083   5.539   3.085
   74DOPC   C28 3970   4.937   5.560   3.126
   74DOPC   C29 3971   4.911   5.514   3.269
   74DOPC   C30 3972   4.766   5.544   3.309
   74DOPC   C31 3973   4.738   5.503   3.453
   74DOPC   C32 3974   4.663   5.684   2.081
   74DOPC   O33 3975   4.667   5.609   2.203
   74DOPC   C34 3976   4.545   5.581   2.253
   74DOPC   O35 3977   4.443   5.610   2.190
   74DOPC   C36 3978   4.539   5.509   2.388
   74DOPC   C37 3979   4.404   5.440   2.411
   74DOPC   C38 3980   4.399   5.370   2.547
   74DOPC   C39 3981   4.507   5.262   2.559
   74DOPC   C40 3982   4.500   5.193   2.695
   74DOPC   C41 3983   4.613   5.092   2.710
   74DOPC   C42 3984   4.610   5.021   2.846
   74DOPC   C43 3985   4.624   5.120   2.962
   74DOPC   C44 3986   4.645   5.072   3.091
   74DOPC   C45 3987   4.654   4.922   3.115
   74DOPC   C46 3988   4.695   4.889   3.259
   74DOPC   C47 3989   4.593   4.940   3.361
   74DOPC   C48 3990   4.638   4.905   3.503
   74DOPC   C49 3991   4.537   4.953   3.608
   74DOPC   C50 3992   4.401   4.886   3.588
   74DOPC   CA1 3993   4.302   4.933   3.695
   74DOPC   CA2 3994   4.165   4.868   3.676
   74DOPC   CA3 3995   4.761   5.354   3.474
   74DOPC   CA4 3996   4.733   5.315   3.620
   75DOPC    C1 3997   6.391   6.247   1.332
   75DOPC    C2 3998   6.552   6.230   1.161
   75DOPC    C3 3999   6.521   6.048   1.306
   75DOPC    N4 4000   6.525   6.195   1.301
   75DOPC    C5 4001   0.048   6.254   1.388
   75DOPC    C6 4002   0.041   6.229   1.541
   75DOPC    O7 4003   0.086   6.099   1.582
   75DOPC    P8 4004   6.571   6.049   1.696
   75DOPC    O9 4005   6.436   6.095   1.660
   75DOPC   O10 4006   0.016   5.908   1.727
   75DOPC   O11 4007   0.043   6.133   1.817
   75DOPC   C12 4008   0.151   6.065   1.879
   75DOPC   C13 4009   0.206   6.129   2.008
   75DOPC   O14 4010   0.268   6.028   2.094
   75DOPC   C15 4011   0.389   5.975   2.067
   75DOPC   O16 4012   0.449   5.998   1.962
   75DOPC   C17 4013   0.431   5.859   2.159
   75DOPC   C18 4014   0.480   5.903   2.297
   75DOPC   C19 4015   0.518   5.777   2.375
   75DOPC   C20 4016   0.572   5.803   2.516
   75DOPC   C21 4017   0.469   5.871   2.608
   75DOPC   C22 4018   0.523   5.873   2.752
   75DOPC   C23 4019   0.425   5.937   2.851
   75DOPC   C24 4020   0.485   5.937   2.991
   75DOPC   C25 4021   0.421   5.999   3.098
   75DOPC   C26 4022   0.286   6.070   3.080
   75DOPC   C27 4023   0.244   6.134   3.212
   75DOPC   C28 4024   0.112   6.211   3.200
   75DOPC   C29 4025   0.077   6.274   3.335
   75DOPC   C30 4026   6.532   6.359   3.328
   75DOPC   C31 4027   6.501   6.421   3.465
   75DOPC   C32 4028   0.083   6.192   2.077
   75DOPC   O33 4029   0.109   6.271   2.195
   75DOPC   C34 4030   6.580   6.306   2.265
   75DOPC   O35 4031   6.467   6.273   2.228
   75DOPC   C36 4032   0.021   6.379   2.398
   75DOPC   C37 4033   6.536   6.304   2.515
   75DOPC   C38 4034   0.029   6.175   2.550
   75DOPC   C39 4035   6.531   6.087   2.646
   75DOPC   C40 4036   6.494   6.156   2.777
   75DOPC   C41 4037   6.409   6.059   2.860
   75DOPC   C42 4038   6.350   6.120   2.987
   75DOPC   C43 4039   6.258   6.014   3.049
   75DOPC   C44 4040   6.179   6.036   3.162
   75DOPC   C45 4041   6.176   6.168   3.239
   75DOPC   C46 4042   6.072   6.154   3.351
   75DOPC   C47 4043   6.066   6.275   3.444
   75DOPC   C48 4044   5.961   6.251   3.553
   75DOPC   C49 4045   5.959   6.362   3.658
   75DOPC   C50 4046   5.927   0.023   3.597
   75DOPC   CA1 4047   5.926   0.132   3.704
   75DOPC   CA2 4048   5.822   0.101   3.812
   75DOPC   CA3 4049   6.378   0.035   3.459
   75DOPC   CA4 4050   6.350   0.098   3.596
   76DOPC    C1 4051   6.281   2.721   1.797
   76DOPC    C2 4052   6.137   2.737   1.613
   76DOPC    C3 4053   6.171   2.926   1.758
   76DOPC    N4 4054   6.155   2.780   1.752
   76DOPC    C5 4055   6.048   2.733   1.843
   76DOPC    C6 4056   5.901   2.777   1.815
   76DOPC    O7 4057   5.839   2.697   1.715
   76DOPC    P8 4058   5.692   2.740   1.686
   76DOPC    O9 4059   5.683   2.886   1.700
   76DOPC   O10 4060   5.655   2.672   1.561
   76DOPC   O11 4061   5.621   2.668   1.808
   76DOPC   C12 4062   5.657   2.530   1.810
   76DOPC   C13 4063   5.622   2.454   1.940
   76DOPC   O14 4064   5.487   2.397   1.949
   76DOPC   C15 4065   5.474   2.290   2.032
   76DOPC   O16 4066   5.575   2.233   2.071
   76DOPC   C17 4067   5.333   2.241   2.064
   76DOPC   C18 4068   5.329   2.158   2.193
   76DOPC   C19 4069   5.188   2.108   2.224
   76DOPC   C20 4070   5.187   2.021   2.350
   76DOPC   C21 4071   5.046   1.969   2.382
   76DOPC   C22 4072   4.991   1.890   2.263
   76DOPC   C23 4073   4.856   1.825   2.293
   76DOPC   C24 4074   4.803   1.757   2.166
   76DOPC   C25 4075   4.687   1.680   2.168
   76DOPC   C26 4076   4.610   1.655   2.298
   76DOPC   C27 4077   4.485   1.572   2.269
   76DOPC   C28 4078   4.408   1.538   2.397
   76DOPC   C29 4079   4.279   1.463   2.363
   76DOPC   C30 4080   4.199   1.427   2.489
   76DOPC   C31 4081   4.270   1.321   2.574
   76DOPC   C32 4082   5.661   2.547   2.057
   76DOPC   O33 4083   5.802   2.566   2.075
   76DOPC   C34 4084   5.835   2.642   2.183
   76DOPC   O35 4085   5.751   2.715   2.236
   76DOPC   C36 4086   5.984   2.654   2.214
   76DOPC   C37 4087   6.011   2.663   2.364
   76DOPC   C38 4088   6.162   2.672   2.390
   76DOPC   C39 4089   6.194   2.680   2.540
   76DOPC   C40 4090   6.345   2.696   2.558
   76DOPC   C41 4091   6.384   2.710   2.705
   76DOPC   C42 4092   6.534   2.738   2.716
   76DOPC   C43 4093   6.577   2.756   2.862
   76DOPC   C44 4094   0.125   2.796   2.890
   76DOPC   C45 4095   0.224   2.821   2.775
   76DOPC   C46 4096   0.358   2.871   2.829
   76DOPC   C47 4097   0.339   3.004   2.902
   76DOPC   C48 4098   0.470   3.050   2.968
   76DOPC   C49 4099   0.450   3.183   3.041
   76DOPC   C50 4100   0.575   3.222   3.120
   76DOPC   CA1 4101   0.696   3.236   3.028
   76DOPC   CA2 4102   0.820   3.275   3.107
   76DOPC   CA3 4103   4.282   1.188   2.499
   76DOPC   CA4 4104   4.347   1.081   2.587
   77DOPC    C1 4105   5.598   4.130   1.852
   77DOPC    C2 4106   5.653   4.243   1.649
   77DOPC    C3 4107   5.643   4.007   1.656
   77DOPC    N4 4108   5.580   4.129   1.707
   77DOPC    C5 4109   5.437   4.125   1.665
   77DOPC    C6 4110   5.346   4.248   1.692
   77DOPC    O7 4111   5.315   4.267   1.829
   77DOPC    P8 4112   5.221   4.391   1.846
   77DOPC    O9 4113   5.140   4.400   1.723
   77DOPC   O10 4114   5.157   4.374   1.977
   77DOPC   O11 4115   5.331   4.501   1.851
   77DOPC   C12 4116   5.397   4.484   1.976
   77DOPC   C13 4117   5.501   4.593   2.009
   77DOPC   O14 4118   5.599   4.554   2.110
   77DOPC   C15 4119   5.698   4.468   2.080
   77DOPC   O16 4120   5.709   4.420   1.966
   77DOPC   C17 4121   5.795   4.429   2.192
   77DOPC   C18 4122   5.729   4.401   2.327
   77DOPC   C19 4123   5.709   4.528   2.410
   77DOPC   C20 4124   5.646   4.498   2.546
   77DOPC   C21 4125   5.734   4.404   2.628
   77DOPC   C22 4126   5.675   4.385   2.768
   77DOPC   C23 4127   5.757   4.286   2.851
   77DOPC   C24 4128   5.758   4.148   2.785
   77DOPC   C25 4129   5.820   4.041   2.849
   77DOPC   C26 4130   5.888   4.063   2.985
   77DOPC   C27 4131   5.942   3.932   3.041
   77DOPC   C28 4132   6.015   3.955   3.173
   77DOPC   C29 4133   6.134   4.049   3.152
   77DOPC   C30 4134   6.213   4.069   3.281
   77DOPC   C31 4135   6.338   4.153   3.254
   77DOPC   C32 4136   5.418   4.718   2.043
   77DOPC   O33 4137   5.318   4.697   2.142
   77DOPC   C34 4138   5.251   4.806   2.184
   77DOPC   O35 4139   5.272   4.918   2.136
   77DOPC   C36 4140   5.153   4.782   2.299
   77DOPC   C37 4141   5.226   4.744   2.428
   77DOPC   C38 4142   5.129   4.691   2.533
   77DOPC   C39 4143   5.204   4.659   2.663
   77DOPC   C40 4144   5.110   4.595   2.766
   77DOPC   C41 4145   5.183   4.574   2.899
   77DOPC   C42 4146   5.095   4.502   3.001
   77DOPC   C43 4147   5.164   4.493   3.137
   77DOPC   C44 4148   5.106   4.422   3.241
   77DOPC   C45 4149   4.975   4.346   3.218
   77DOPC   C46 4150   4.924   4.285   3.349
   77DOPC   C47 4151   4.797   4.203   3.326
   77DOPC   C48 4152   4.825   4.075   3.246
   77DOPC   C49 4153   4.916   3.981   3.326
   77DOPC   C50 4154   4.936   3.848   3.253
   77DOPC   CA1 4155   5.022   3.753   3.337
   77DOPC   CA2 4156   5.038   3.618   3.267
   77DOPC   CA3 4157   6.426   4.166   3.378
   77DOPC   CA4 4158   6.555   4.240   3.345
   78DOPC    C1 4159   5.341   5.323   1.832
   78DOPC    C2 4160   5.315   5.229   2.046
   78DOPC    C3 4161   5.495   5.376   2.006
   78DOPC    N4 4162   5.415   5.268   1.946
   78DOPC    C5 4163   5.494   5.148   1.908
   78DOPC    C6 4164   5.612   5.163   1.808
   78DOPC    O7 4165   5.725   5.228   1.866
   78DOPC    P8 4166   5.851   5.228   1.772
   78DOPC    O9 4167   5.801   5.224   1.634
   78DOPC   O10 4168   5.943   5.333   1.817
   78DOPC   O11 4169   5.908   5.086   1.805
   78DOPC   C12 4170   5.925   5.075   1.946
   78DOPC   C13 4171   5.932   4.929   1.994
   78DOPC   O14 4172   5.884   4.910   2.131
   78DOPC   C15 4173   5.751   4.908   2.154
   78DOPC   O16 4174   5.670   4.910   2.061
   78DOPC   C17 4175   5.711   4.911   2.302
   78DOPC   C18 4176   5.568   4.961   2.325
   78DOPC   C19 4177   5.543   4.993   2.472
   78DOPC   C20 4178   5.574   4.875   2.564
   78DOPC   C21 4179   5.534   4.906   2.708
   78DOPC   C22 4180   5.575   4.793   2.802
   78DOPC   C23 4181   5.522   4.815   2.944
   78DOPC   C24 4182   5.569   4.705   3.038
   78DOPC   C25 4183   5.517   4.695   3.167
   78DOPC   C26 4184   5.408   4.792   3.213
   78DOPC   C27 4185   5.365   4.762   3.357
   78DOPC   C28 4186   5.248   4.851   3.397
   78DOPC   C29 4187   5.205   4.827   3.542
   78DOPC   C30 4188   5.087   4.917   3.578
   78DOPC   C31 4189   5.050   4.907   3.726
   78DOPC   C32 4190   6.074   4.880   1.965
   78DOPC   O33 4191   6.176   4.966   2.019
   78DOPC   C34 4192   6.303   4.921   2.010
   78DOPC   O35 4193   6.331   4.818   1.948
   78DOPC   C36 4194   6.409   5.009   2.077
   78DOPC   C37 4195   6.516   4.925   2.147
   78DOPC   C38 4196   0.021   5.013   2.237
   78DOPC   C39 4197   0.131   4.930   2.303
   78DOPC   C40 4198   0.205   5.010   2.410
   78DOPC   C41 4199   0.316   4.926   2.471
   78DOPC   C42 4200   0.379   4.995   2.593
   78DOPC   C43 4201   0.489   4.911   2.657
   78DOPC   C44 4202   0.463   4.798   2.734
   78DOPC   C45 4203   0.321   4.754   2.771
   78DOPC   C46 4204   0.319   4.612   2.828
   78DOPC   C47 4205   0.402   4.600   2.956
   78DOPC   C48 4206   0.348   4.690   3.067
   78DOPC   C49 4207   0.432   4.675   3.194
   78DOPC   C50 4208   0.383   4.771   3.303
   78DOPC   CA1 4209   0.467   4.758   3.429
   78DOPC   CA2 4210   0.421   4.859   3.535
   78DOPC   CA3 4211   4.935   5.003   3.759
   78DOPC   CA4 4212   4.901   5.001   3.908
   79DOPC    C1 4213   6.260   3.742   1.362
   79DOPC    C2 4214   6.151   3.563   1.468
   79DOPC    C3 4215   6.384   3.552   1.438
   79DOPC    N4 4216   6.273   3.643   1.469
   79DOPC    C5 4217   6.286   3.708   1.603
   79DOPC    C6 4218   6.400   3.809   1.627
   79DOPC    O7 4219   6.527   3.747   1.642
   79DOPC    P8 4220   0.057   3.827   1.570
   79DOPC    O9 4221   0.174   3.738   1.565
   79DOPC   O10 4222   6.578   3.885   1.449
   79DOPC   O11 4223   0.084   3.940   1.674
   79DOPC   C12 4224   0.172   3.891   1.775
   79DOPC   C13 4225   0.263   4.000   1.834
   79DOPC   O14 4226   0.366   3.952   1.927
   79DOPC   C15 4227   0.476   3.885   1.885
   79DOPC   O16 4228   0.508   3.881   1.766
   79DOPC   C17 4229   0.560   3.820   1.995
   79DOPC   C18 4230   0.675   3.910   2.043
   79DOPC   C19 4231   0.734   3.853   2.171
   79DOPC   C20 4232   0.850   3.938   2.224
   79DOPC   C21 4233   0.895   3.888   2.361
   79DOPC   C22 4234   0.779   3.894   2.460
   79DOPC   C23 4235   0.821   3.853   2.601
   79DOPC   C24 4236   0.703   3.868   2.697
   79DOPC   C25 4237   0.720   3.845   2.833
   79DOPC   C26 4238   0.857   3.805   2.889
   79DOPC   C27 4239   0.851   3.791   3.041
   79DOPC   C28 4240   0.746   3.687   3.081
   79DOPC   C29 4241   0.739   3.670   3.233
   79DOPC   C30 4242   0.871   3.620   3.290
   79DOPC   C31 4243   0.859   3.595   3.440
   79DOPC   C32 4244   0.164   4.104   1.889
   79DOPC   O33 4245   0.072   4.052   1.987
   79DOPC   C34 4246   6.547   4.128   2.018
   79DOPC   O35 4247   6.512   4.222   1.947
   79DOPC   C36 4248   6.469   4.084   2.142
   79DOPC   C37 4249   6.378   3.964   2.114
   79DOPC   C38 4250   6.326   3.906   2.245
   79DOPC   C39 4251   6.442   3.855   2.330
   79DOPC   C40 4252   6.397   3.805   2.468
   79DOPC   C41 4253   6.293   3.694   2.456
   79DOPC   C42 4254   6.252   3.640   2.594
   79DOPC   C43 4255   6.140   3.537   2.580
   79DOPC   C44 4256   6.090   3.470   2.691
   79DOPC   C45 4257   6.145   3.493   2.832
   79DOPC   C46 4258   6.066   3.411   2.934
   79DOPC   C47 4259   6.071   3.262   2.899
   79DOPC   C48 4260   5.984   3.177   2.992
   79DOPC   C49 4261   6.031   3.183   3.138
   79DOPC   C50 4262   5.943   3.093   3.225
   79DOPC   CA1 4263   5.989   3.094   3.371
   79DOPC   CA2 4264   5.901   3.004   3.458
   79DOPC   CA3 4265   0.989   3.537   3.497
   79DOPC   CA4 4266   0.977   3.511   3.647
   80DOPC    C1 4267   3.616   4.961   1.939
   80DOPC    C2 4268   3.444   4.884   1.799
   80DOPC    C3 4269   3.392   5.046   1.963
   80DOPC    N4 4270   3.495   5.003   1.868
   80DOPC    C5 4271   3.519   5.109   1.767
   80DOPC    C6 4272   3.609   5.230   1.806
   80DOPC    O7 4273   3.562   5.308   1.916
   80DOPC    P8 4274   3.655   5.432   1.932
   80DOPC    O9 4275   3.750   5.436   1.819
   80DOPC   O10 4276   3.573   5.551   1.963
   80DOPC   O11 4277   3.734   5.385   2.059
   80DOPC   C12 4278   3.685   5.450   2.176
   80DOPC   C13 4279   3.755   5.409   2.307
   80DOPC   O14 4280   3.887   5.465   2.331
   80DOPC   C15 4281   3.896   5.586   2.390
   80DOPC   O16 4282   3.796   5.657   2.402
   80DOPC   C17 4283   4.036   5.629   2.434
   80DOPC   C18 4284   4.031   5.738   2.541
   80DOPC   C19 4285   4.167   5.760   2.607
   80DOPC   C20 4286   4.159   5.878   2.704
   80DOPC   C21 4287   4.285   5.893   2.789
   80DOPC   C22 4288   4.274   6.021   2.872
   80DOPC   C23 4289   4.385   6.033   2.978
   80DOPC   C24 4290   4.372   6.168   3.049
   80DOPC   C25 4291   4.437   6.193   3.169
   80DOPC   C26 4292   4.521   6.086   3.239
   80DOPC   C27 4293   4.560   6.135   3.379
   80DOPC   C28 4294   4.643   6.033   3.457
   80DOPC   C29 4295   4.668   6.084   3.598
   80DOPC   C30 4296   4.752   5.987   3.681
   80DOPC   C31 4297   4.891   5.967   3.619
   80DOPC   C32 4298   3.752   5.255   2.310
   80DOPC   O33 4299   3.621   5.199   2.330
   80DOPC   C34 4300   3.621   5.064   2.341
   80DOPC   O35 4301   3.723   4.999   2.321
   80DOPC   C36 4302   3.485   4.997   2.364
   80DOPC   C37 4303   3.462   4.969   2.513
   80DOPC   C38 4304   3.330   4.894   2.533
   80DOPC   C39 4305   3.309   4.860   2.681
   80DOPC   C40 4306   3.296   4.985   2.767
   80DOPC   C41 4307   3.277   4.945   2.913
   80DOPC   C42 4308   3.253   5.065   3.005
   80DOPC   C43 4309   3.370   5.164   3.003
   80DOPC   C44 4310   3.370   5.268   3.095
   80DOPC   C45 4311   3.253   5.279   3.193
   80DOPC   C46 4312   3.275   5.386   3.300
   80DOPC   C47 4313   3.158   5.385   3.398
   80DOPC   C48 4314   3.179   5.482   3.515
   80DOPC   C49 4315   3.063   5.469   3.614
   80DOPC   C50 4316   3.082   5.560   3.736
   80DOPC   CA1 4317   2.966   5.542   3.834
   80DOPC   CA2 4318   2.984   5.631   3.957
   80DOPC   CA3 4319   4.974   5.871   3.704
   80DOPC   CA4 4320   5.115   5.853   3.646
   81DOPC    C1 4321   5.893   5.603   5.412
   81DOPC    C2 4322   6.110   5.556   5.315
   81DOPC    C3 4323   6.074   5.547   5.549
   81DOPC    N4 4324   6.038   5.621   5.427
   81DOPC    C5 4325   6.080   5.761   5.448
   81DOPC    C6 4326   6.040   5.867   5.342
   81DOPC    O7 4327   6.104   5.992   5.365
   81DOPC    P8 4328   6.058   6.093   5.254
   81DOPC    O9 4329   5.911   6.097   5.255
   81DOPC   O10 4330   6.138   6.214   5.280
   81DOPC   O11 4331   6.113   6.014   5.132
   81DOPC   C12 4332   6.192   6.098   5.048
   81DOPC   C13 4333   6.341   6.063   5.046
   81DOPC   O14 4334   6.419   6.155   4.964
   81DOPC   C15 4335   6.552   6.164   4.983
   81DOPC   O16 4336   0.023   6.116   5.083
   81DOPC   C17 4337   0.045   6.256   4.884
   81DOPC   C18 4338   0.187   6.207   4.858
   81DOPC   C19 4339   0.267   6.303   4.770
   81DOPC   C20 4340   0.220   6.310   4.625
   81DOPC   C21 4341   0.316   6.400   4.547
   81DOPC   C22 4342   0.285   6.403   4.397
   81DOPC   C23 4343   0.389   0.013   4.324
   81DOPC   C24 4344   0.366   0.010   4.172
   81DOPC   C25 4345   0.460   0.068   4.087
   81DOPC   C26 4346   0.584   0.137   4.145
   81DOPC   C27 4347   0.686   0.169   4.036
   81DOPC   C28 4348   0.627   0.260   3.929
   81DOPC   C29 4349   0.731   0.292   3.821
   81DOPC   C30 4350   0.853   0.362   3.883
   81DOPC   C31 4351   0.958   0.393   3.777
   81DOPC   C32 4352   6.347   5.915   5.002
   81DOPC   O33 4353   6.270   5.887   4.883
   81DOPC   C34 4354   6.265   5.759   4.844
   81DOPC   O35 4355   6.326   5.670   4.904
   81DOPC   C36 4356   6.170   5.732   4.726
   81DOPC   C37 4357   6.215   5.619   4.634
   81DOPC   C38 4358   6.111   5.601   4.523
   81DOPC   C39 4359   6.143   5.481   4.434
   81DOPC   C40 4360   6.277   5.496   4.362
   81DOPC   C41 4361   6.303   5.370   4.278
   81DOPC   C42 4362   6.436   5.377   4.203
   81DOPC   C43 4363   6.456   5.249   4.123
   81DOPC   C44 4364   6.568   5.232   4.042
   81DOPC   C45 4365   0.091   5.342   4.028
   81DOPC   C46 4366   0.203   5.295   3.935
   81DOPC   C47 4367   0.312   5.402   3.922
   81DOPC   C48 4368   0.260   5.529   3.855
   81DOPC   C49 4369   0.370   5.634   3.849
   81DOPC   C50 4370   0.493   5.582   3.774
   81DOPC   CA1 4371   0.604   5.688   3.772
   81DOPC   CA2 4372   0.729   5.636   3.700
   81DOPC   CA3 4373   1.080   0.462   3.840
   81DOPC   CA4 4374   1.185   0.493   3.733
   82DOPC    C1 4375   1.218   1.186   5.510
   82DOPC    C2 4376   1.009   1.300   5.484
   82DOPC    C3 4377   1.034   1.136   5.650
   82DOPC    N4 4378   1.104   1.245   5.582
   82DOPC    C5 4379   1.146   1.343   5.686
   82DOPC    C6 4380   1.242   1.458   5.647
   82DOPC    O7 4381   1.187   1.551   5.554
   82DOPC    P8 4382   1.291   1.665   5.522
   82DOPC    O9 4383   1.197   1.774   5.493
   82DOPC   O10 4384   1.385   1.666   5.634
   82DOPC   O11 4385   1.349   1.601   5.392
   82DOPC   C12 4386   1.245   1.584   5.297
   82DOPC   C13 4387   1.295   1.552   5.155
   82DOPC   O14 4388   1.352   1.419   5.130
   82DOPC   C15 4389   1.269   1.313   5.117
   82DOPC   O16 4390   1.158   1.311   5.170
   82DOPC   C17 4391   1.326   1.190   5.047
   82DOPC   C18 4392   1.345   1.072   5.143
   82DOPC   C19 4393   1.374   0.945   5.065
   82DOPC   C20 4394   1.502   0.957   4.982
   82DOPC   C21 4395   1.627   0.952   5.071
   82DOPC   C22 4396   1.754   0.971   4.988
   82DOPC   C23 4397   1.764   0.869   4.874
   82DOPC   C24 4398   1.893   0.892   4.795
   82DOPC   C25 4399   1.919   0.820   4.679
   82DOPC   C26 4400   1.819   0.718   4.625
   82DOPC   C27 4401   1.878   0.641   4.507
   82DOPC   C28 4402   1.922   0.734   4.394
   82DOPC   C29 4403   1.975   0.653   4.275
   82DOPC   C30 4404   2.024   0.743   4.162
   82DOPC   C31 4405   2.075   0.659   4.045
   82DOPC   C32 4406   1.383   1.672   5.118
   82DOPC   O33 4407   1.301   1.786   5.089
   82DOPC   C34 4408   1.361   1.902   5.057
   82DOPC   O35 4409   1.482   1.918   5.070
   82DOPC   C36 4410   1.269   2.013   5.004
   82DOPC   C37 4411   1.153   1.953   4.924
   82DOPC   C38 4412   1.064   2.059   4.859
   82DOPC   C39 4413   1.005   2.155   4.963
   82DOPC   C40 4414   0.904   2.247   4.895
   82DOPC   C41 4415   0.967   2.320   4.777
   82DOPC   C42 4416   0.867   2.414   4.711
   82DOPC   C43 4417   0.928   2.485   4.590
   82DOPC   C44 4418   0.849   2.571   4.515
   82DOPC   C45 4419   0.705   2.596   4.558
   82DOPC   C46 4420   0.626   2.670   4.450
   82DOPC   C47 4421   0.481   2.691   4.495
   82DOPC   C48 4422   0.395   2.751   4.384
   82DOPC   C49 4423   0.250   2.762   4.431
   82DOPC   C50 4424   0.157   2.805   4.318
   82DOPC   CA1 4425   0.012   2.809   4.367
   82DOPC   CA2 4426   6.499   2.847   4.254
   82DOPC   CA3 4427   2.130   0.747   3.932
   82DOPC   CA4 4428   2.022   0.840   3.876
   83DOPC    C1 4429   0.133   1.908   5.730
   83DOPC    C2 4430   0.318   1.762   5.699
   83DOPC    C3 4431   0.109   1.673   5.770
   83DOPC    N4 4432   0.172   1.774   5.683
   83DOPC    C5 4433   0.139   1.752   5.540
   83DOPC    C6 4434   6.573   1.731   5.500
   83DOPC    O7 4435   6.494   1.849   5.513
   83DOPC    P8 4436   6.345   1.811   5.541
   83DOPC    O9 4437   6.351   1.689   5.624
   83DOPC   O10 4438   6.277   1.933   5.583
   83DOPC   O11 4439   6.313   1.775   5.392
   83DOPC   C12 4440   6.302   1.897   5.317
   83DOPC   C13 4441   6.312   1.874   5.165
   83DOPC   O14 4442   6.184   1.844   5.100
   83DOPC   C15 4443   6.097   1.946   5.077
   83DOPC   O16 4444   6.118   2.059   5.121
   83DOPC   C17 4445   5.963   1.904   5.016
   83DOPC   C18 4446   5.902   2.012   4.927
   83DOPC   C19 4447   5.764   1.968   4.879
   83DOPC   C20 4448   5.699   2.075   4.792
   83DOPC   C21 4449   5.780   2.101   4.665
   83DOPC   C22 4450   5.718   2.215   4.585
   83DOPC   C23 4451   5.791   2.239   4.453
   83DOPC   C24 4452   5.730   2.360   4.382
   83DOPC   C25 4453   5.769   2.393   4.253
   83DOPC   C26 4454   5.873   2.307   4.181
   83DOPC   C27 4455   5.896   2.358   4.039
   83DOPC   C28 4456   5.766   2.354   3.958
   83DOPC   C29 4457   5.791   2.401   3.814
   83DOPC   C30 4458   5.843   2.545   3.813
   83DOPC   C31 4459   5.881   2.588   3.671
   83DOPC   C32 4460   6.421   1.765   5.156
   83DOPC   O33 4461   6.485   1.739   5.031
   83DOPC   C34 4462   0.004   1.649   5.038
   83DOPC   O35 4463   0.053   1.617   5.147
   83DOPC   C36 4464   0.064   1.604   4.905
   83DOPC   C37 4465   0.049   1.453   4.882
   83DOPC   C38 4466   6.484   1.410   4.875
   83DOPC   C39 4467   6.473   1.258   4.866
   83DOPC   C40 4468   6.525   1.201   4.734
   83DOPC   C41 4469   6.524   1.048   4.743
   83DOPC   C42 4470   6.544   0.980   4.608
   83DOPC   C43 4471   6.552   0.828   4.629
   83DOPC   C44 4472   6.553   0.739   4.522
   83DOPC   C45 4473   6.541   0.787   4.377
   83DOPC   C46 4474   6.551   0.666   4.284
   83DOPC   C47 4475   6.529   0.702   4.137
   83DOPC   C48 4476   6.551   0.577   4.051
   83DOPC   C49 4477   6.525   0.602   3.902
   83DOPC   C50 4478   6.379   0.635   3.875
   83DOPC   CA1 4479   6.355   0.651   3.725
   83DOPC   CA2 4480   6.207   0.677   3.695
   83DOPC   CA3 4481   5.992   2.498   3.615
   83DOPC   CA4 4482   6.031   2.540   3.474
   84DOPC    C1 4483   2.549   1.967   5.721
   84DOPC    C2 4484   2.741   2.001   5.591
   84DOPC    C3 4485   2.522   2.027   5.494
   84DOPC    N4 4486   2.604   2.050   5.614
   84DOPC    C5 4487   2.602   2.190   5.661
   84DOPC    C6 4488   2.635   2.306   5.562
   84DOPC    O7 4489   2.772   2.327   5.532
   84DOPC    P8 4490   2.821   2.460   5.600
   84DOPC    O9 4491   2.750   2.476   5.727
   84DOPC   O10 4492   2.968   2.460   5.597
   84DOPC   O11 4493   2.761   2.569   5.505
   84DOPC   C12 4494   2.863   2.643   5.438
   84DOPC   C13 4495   2.827   2.790   5.403
   84DOPC   O14 4496   2.719   2.803   5.305
   84DOPC   C15 4497   2.676   2.924   5.262
   84DOPC   O16 4498   2.693   3.027   5.329
   84DOPC   C17 4499   2.582   2.923   5.141
   84DOPC   C18 4500   2.661   2.902   5.012
   84DOPC   C19 4501   2.569   2.920   4.892
   84DOPC   C20 4502   2.511   3.062   4.895
   84DOPC   C21 4503   2.409   3.083   4.782
   84DOPC   C22 4504   2.350   3.224   4.792
   84DOPC   C23 4505   2.234   3.241   4.695
   84DOPC   C24 4506   2.129   3.133   4.720
   84DOPC   C25 4507   1.994   3.166   4.713
   84DOPC   C26 4508   1.952   3.309   4.682
   84DOPC   C27 4509   1.801   3.326   4.699
   84DOPC   C28 4510   1.761   3.472   4.677
   84DOPC   C29 4511   1.835   3.564   4.774
   84DOPC   C30 4512   1.788   3.709   4.757
   84DOPC   C31 4513   1.862   3.805   4.850
   84DOPC   C32 4514   2.961   2.854   5.363
   84DOPC   O33 4515   3.033   2.783   5.262
   84DOPC   C34 4516   3.150   2.839   5.225
   84DOPC   O35 4517   3.196   2.935   5.287
   84DOPC   C36 4518   3.226   2.772   5.111
   84DOPC   C37 4519   3.209   2.849   4.980
   84DOPC   C38 4520   3.083   2.807   4.904
   84DOPC   C39 4521   3.095   2.660   4.863
   84DOPC   C40 4522   2.990   2.623   4.758
   84DOPC   C41 4523   3.016   2.480   4.708
   84DOPC   C42 4524   2.933   2.451   4.583
   84DOPC   C43 4525   2.967   2.313   4.527
   84DOPC   C44 4526   2.920   2.277   4.401
   84DOPC   C45 4527   2.835   2.376   4.322
   84DOPC   C46 4528   2.802   2.323   4.183
   84DOPC   C47 4529   2.716   2.424   4.106
   84DOPC   C48 4530   2.683   2.373   3.966
   84DOPC   C49 4531   2.592   2.472   3.894
   84DOPC   C50 4532   2.462   2.492   3.972
   84DOPC   CA1 4533   2.369   2.591   3.902
   84DOPC   CA2 4534   2.240   2.610   3.982
   84DOPC   CA3 4535   1.804   3.946   4.835
   84DOPC   CA4 4536   1.814   3.994   4.691
   85DOPC    C1 4537   4.642   0.998   5.642
   85DOPC    C2 4538   4.729   0.799   5.738
   85DOPC    C3 4539   4.685   0.816   5.501
   85DOPC    N4 4540   4.637   0.851   5.635
   85DOPC    C5 4541   4.496   0.811   5.657
   85DOPC    C6 4542   4.460   0.661   5.677
   85DOPC    O7 4543   4.489   0.578   5.564
   85DOPC    P8 4544   4.367   0.481   5.540
   85DOPC    O9 4545   4.395   0.396   5.656
   85DOPC   O10 4546   4.263   0.585   5.536
   85DOPC   O11 4547   4.432   0.444   5.402
   85DOPC   C12 4548   4.398   0.548   5.309
   85DOPC   C13 4549   4.460   0.525   5.170
   85DOPC   O14 4550   4.423   0.627   5.072
   85DOPC   C15 4551   4.503   0.735   5.059
   85DOPC   O16 4552   4.580   0.768   5.150
   85DOPC   C17 4553   4.480   0.823   4.936
   85DOPC   C18 4554   4.613   0.857   4.869
   85DOPC   C19 4555   4.593   0.939   4.741
   85DOPC   C20 4556   4.727   0.973   4.677
   85DOPC   C21 4557   4.707   1.055   4.550
   85DOPC   C22 4558   4.842   1.093   4.488
   85DOPC   C23 4559   4.822   1.183   4.366
   85DOPC   C24 4560   4.955   1.228   4.308
   85DOPC   C25 4561   4.957   1.322   4.205
   85DOPC   C26 4562   4.825   1.378   4.153
   85DOPC   C27 4563   4.849   1.485   4.046
   85DOPC   C28 4564   4.716   1.529   3.984
   85DOPC   C29 4565   4.738   1.637   3.878
   85DOPC   C30 4566   4.606   1.669   3.807
   85DOPC   C31 4567   4.552   1.544   3.738
   85DOPC   C32 4568   4.419   0.382   5.132
   85DOPC   O33 4569   4.473   0.338   5.006
   85DOPC   C34 4570   4.447   0.211   4.972
   85DOPC   O35 4571   4.429   0.125   5.059
   85DOPC   C36 4572   4.477   0.175   4.826
   85DOPC   C37 4573   4.393   0.058   4.776
   85DOPC   C38 4574   4.423   0.027   4.629
   85DOPC   C39 4575   4.378   0.140   4.537
   85DOPC   C40 4576   4.409   0.107   4.391
   85DOPC   C41 4577   4.347   0.209   4.296
   85DOPC   C42 4578   4.377   0.174   4.150
   85DOPC   C43 4579   4.298   0.264   4.054
   85DOPC   C44 4580   4.310   0.247   3.917
   85DOPC   C45 4581   4.404   0.141   3.859
   85DOPC   C46 4582   4.393   0.134   3.707
   85DOPC   C47 4583   4.491   0.032   3.649
   85DOPC   C48 4584   4.477   0.020   3.498
   85DOPC   C49 4585   4.502   0.153   3.427
   85DOPC   C50 4586   4.489   0.137   3.275
   85DOPC   CA1 4587   4.512   0.270   3.203
   85DOPC   CA2 4588   4.503   0.253   3.051
   85DOPC   CA3 4589   4.420   1.573   3.666
   85DOPC   CA4 4590   4.368   1.449   3.594
   86DOPC    C1 4591   3.086   1.422   5.175
   86DOPC    C2 4592   3.095   1.291   5.375
   86DOPC    C3 4593   2.908   1.279   5.230
   86DOPC    N4 4594   3.008   1.370   5.287
   86DOPC    C5 4595   2.932   1.478   5.356
   86DOPC    C6 4596   3.002   1.570   5.459
   86DOPC    O7 4597   3.115   1.645   5.411
   86DOPC    P8 4598   3.075   1.790   5.366
   86DOPC    O9 4599   2.929   1.806   5.365
   86DOPC   O10 4600   3.164   1.878   5.443
   86DOPC   O11 4601   3.132   1.779   5.221
   86DOPC   C12 4602   3.273   1.764   5.234
   86DOPC   C13 4603   3.357   1.793   5.109
   86DOPC   O14 4604   3.401   1.932   5.094
   86DOPC   C15 4605   3.497   1.982   5.175
   86DOPC   O16 4606   3.544   1.913   5.266
   86DOPC   C17 4607   3.549   2.123   5.146
   86DOPC   C18 4608   3.446   2.211   5.074
   86DOPC   C19 4609   3.510   2.342   5.028
   86DOPC   C20 4610   3.410   2.425   4.947
   86DOPC   C21 4611   3.475   2.550   4.888
   86DOPC   C22 4612   3.594   2.511   4.800
   86DOPC   C23 4613   3.644   2.631   4.719
   86DOPC   C24 4614   3.688   2.749   4.805
   86DOPC   C25 4615   3.737   2.861   4.740
   86DOPC   C26 4616   3.742   2.857   4.587
   86DOPC   C27 4617   3.811   2.978   4.525
   86DOPC   C28 4618   3.814   2.960   4.373
   86DOPC   C29 4619   3.891   3.071   4.302
   86DOPC   C30 4620   3.892   3.045   4.152
   86DOPC   C31 4621   3.966   3.155   4.075
   86DOPC   C32 4622   3.274   1.735   4.992
   86DOPC   O33 4623   3.348   1.663   4.892
   86DOPC   C34 4624   3.400   1.542   4.924
   86DOPC   O35 4625   3.376   1.489   5.033
   86DOPC   C36 4626   3.484   1.472   4.816
   86DOPC   C37 4627   3.462   1.536   4.679
   86DOPC   C38 4628   3.551   1.474   4.571
   86DOPC   C39 4629   3.535   1.551   4.440
   86DOPC   C40 4630   3.627   1.494   4.332
   86DOPC   C41 4631   3.615   1.577   4.204
   86DOPC   C42 4632   3.707   1.522   4.095
   86DOPC   C43 4633   3.694   1.607   3.968
   86DOPC   C44 4634   3.772   1.578   3.857
   86DOPC   C45 4635   3.871   1.461   3.860
   86DOPC   C46 4636   3.951   1.458   3.730
   86DOPC   C47 4637   3.858   1.439   3.610
   86DOPC   C48 4638   3.935   1.454   3.478
   86DOPC   C49 4639   3.988   1.597   3.462
   86DOPC   C50 4640   3.873   1.697   3.452
   86DOPC   CA1 4641   3.925   1.840   3.437
   86DOPC   CA2 4642   3.809   1.939   3.426
   86DOPC   CA3 4643   3.961   3.128   3.925
   86DOPC   CA4 4644   4.023   2.992   3.891
   87DOPC    C1 4645   5.451   1.700   5.737
   87DOPC    C2 4646   5.486   1.924   5.654
   87DOPC    C3 4647   5.391   1.884   5.868
   87DOPC    N4 4648   5.492   1.836   5.772
   87DOPC    C5 4649   5.626   1.846   5.836
   87DOPC    C6 4650   5.741   1.756   5.785
   87DOPC    O7 4651   5.768   1.767   5.645
   87DOPC    P8 4652   5.853   1.640   5.610
   87DOPC    O9 4653   5.978   1.668   5.682
   87DOPC   O10 4654   5.757   1.535   5.647
   87DOPC   O11 4655   5.859   1.663   5.455
   87DOPC   C12 4656   5.731   1.640   5.398
   87DOPC   C13 4657   5.731   1.656   5.245
   87DOPC   O14 4658   5.602   1.633   5.180
   87DOPC   C15 4659   5.512   1.733   5.172
   87DOPC   O16 4660   5.504   1.817   5.262
   87DOPC   C17 4661   5.398   1.710   5.073
   87DOPC   C18 4662   5.401   1.810   4.957
   87DOPC   C19 4663   5.288   1.781   4.859
   87DOPC   C20 4664   5.289   1.882   4.744
   87DOPC   C21 4665   5.174   1.857   4.646
   87DOPC   C22 4666   5.040   1.863   4.718
   87DOPC   C23 4667   4.923   1.855   4.620
   87DOPC   C24 4668   4.920   1.724   4.540
   87DOPC   C25 4669   4.823   1.708   4.441
   87DOPC   C26 4670   4.723   1.821   4.417
   87DOPC   C27 4671   4.635   1.797   4.294
   87DOPC   C28 4672   4.540   1.915   4.274
   87DOPC   C29 4673   4.456   1.901   4.147
   87DOPC   C30 4674   4.368   1.776   4.152
   87DOPC   C31 4675   4.284   1.766   4.024
   87DOPC   C32 4676   5.844   1.563   5.197
   87DOPC   O33 4677   5.883   1.584   5.061
   87DOPC   C34 4678   5.986   1.510   5.014
   87DOPC   O35 4679   6.054   1.441   5.089
   87DOPC   C36 4680   6.020   1.534   4.867
   87DOPC   C37 4681   6.065   1.406   4.796
   87DOPC   C38 4682   6.070   1.426   4.644
   87DOPC   C39 4683   6.117   1.296   4.578
   87DOPC   C40 4684   6.100   1.297   4.426
   87DOPC   C41 4685   6.144   1.161   4.371
   87DOPC   C42 4686   6.111   1.145   4.223
   87DOPC   C43 4687   6.153   1.006   4.175
   87DOPC   C44 4688   6.115   0.959   4.050
   87DOPC   C45 4689   6.030   1.047   3.957
   87DOPC   C46 4690   5.984   0.967   3.836
   87DOPC   C47 4691   5.902   1.052   3.739
   87DOPC   C48 4692   5.850   0.968   3.623
   87DOPC   C49 4693   5.757   0.857   3.673
   87DOPC   C50 4694   5.705   0.773   3.557
   87DOPC   CA1 4695   5.610   0.663   3.607
   87DOPC   CA2 4696   5.489   0.723   3.678
   87DOPC   CA3 4697   4.196   1.641   4.025
   87DOPC   CA4 4698   4.100   1.642   4.144
   88DOPC    C1 4699   4.607   1.909   5.652
   88DOPC    C2 4700   4.788   1.986   5.515
   88DOPC    C3 4701   4.580   2.095   5.508
   88DOPC    N4 4702   4.643   1.963   5.520
   88DOPC    C5 4703   4.591   1.878   5.410
   88DOPC    C6 4704   4.637   1.731   5.403
   88DOPC    O7 4705   4.767   1.721   5.347
   88DOPC    P8 4706   4.836   1.588   5.393
   88DOPC    O9 4707   4.970   1.591   5.332
   88DOPC   O10 4708   4.815   1.579   5.538
   88DOPC   O11 4709   4.747   1.486   5.318
   88DOPC   C12 4710   4.780   1.490   5.180
   88DOPC   C13 4711   4.713   1.380   5.097
   88DOPC   O14 4712   4.752   1.380   4.956
   88DOPC   C15 4713   4.876   1.336   4.923
   88DOPC   O16 4714   4.950   1.287   5.008
   88DOPC   C17 4715   4.917   1.351   4.777
   88DOPC   C18 4716   5.068   1.375   4.762
   88DOPC   C19 4717   5.106   1.394   4.615
   88DOPC   C20 4718   5.257   1.414   4.598
   88DOPC   C21 4719   5.291   1.435   4.451
   88DOPC   C22 4720   5.219   1.559   4.396
   88DOPC   C23 4721   5.244   1.578   4.246
   88DOPC   C24 4722   5.167   1.700   4.195
   88DOPC   C25 4723   5.164   1.727   4.058
   88DOPC   C26 4724   5.237   1.634   3.961
   88DOPC   C27 4725   5.213   1.674   3.816
   88DOPC   C28 4726   5.258   1.818   3.789
   88DOPC   C29 4727   5.246   1.851   3.640
   88DOPC   C30 4728   5.285   1.996   3.611
   88DOPC   C31 4729   5.191   2.093   3.682
   88DOPC   C32 4730   4.562   1.395   5.127
   88DOPC   O33 4731   4.509   1.527   5.108
   88DOPC   C34 4732   4.379   1.542   5.141
   88DOPC   O35 4733   4.321   1.459   5.211
   88DOPC   C36 4734   4.316   1.676   5.104
   88DOPC   C37 4735   4.316   1.694   4.952
   88DOPC   C38 4736   4.239   1.818   4.907
   88DOPC   C39 4737   4.229   1.819   4.754
   88DOPC   C40 4738   4.167   1.686   4.709
   88DOPC   C41 4739   4.143   1.679   4.558
   88DOPC   C42 4740   4.096   1.539   4.521
   88DOPC   C43 4741   3.970   1.500   4.599
   88DOPC   C44 4742   3.915   1.374   4.583
   88DOPC   C45 4743   3.979   1.271   4.489
   88DOPC   C46 4744   3.891   1.147   4.477
   88DOPC   C47 4745   3.951   1.043   4.382
   88DOPC   C48 4746   4.080   0.981   4.436
   88DOPC   C49 4747   4.054   0.904   4.566
   88DOPC   C50 4748   4.180   0.833   4.615
   88DOPC   CA1 4749   4.229   0.731   4.512
   88DOPC   CA2 4750   4.354   0.657   4.562
   88DOPC   CA3 4751   5.229   2.238   3.651
   88DOPC   CA4 4752   5.131   2.336   3.718
   89DOPC    C1 4753   2.567   0.211   5.891
   89DOPC    C2 4754   2.502   0.097   6.092
   89DOPC    C3 4755   2.704   0.042   5.983
   89DOPC    N4 4756   2.565   0.082   5.960
   89DOPC    C5 4757   2.502   6.451   5.879
   89DOPC    C6 4758   2.350   6.456   5.848
   89DOPC    O7 4759   2.308   0.079   5.754
   89DOPC    P8 4760   2.160   0.042   5.720
   89DOPC    O9 4761   2.163   6.381   5.664
   89DOPC   O10 4762   2.081   0.069   5.841
   89DOPC   O11 4763   2.114   0.144   5.611
   89DOPC   C12 4764   2.108   0.081   5.484
   89DOPC   C13 4765   1.999   0.143   5.394
   89DOPC   O14 4766   1.959   0.061   5.280
   89DOPC   C15 4767   1.870   6.437   5.296
   89DOPC   O16 4768   1.825   6.409   5.408
   89DOPC   C17 4769   1.831   6.359   5.170
   89DOPC   C18 4770   1.685   6.383   5.132
   89DOPC   C19 4771   1.666   6.368   4.982
   89DOPC   C20 4772   1.521   6.392   4.940
   89DOPC   C21 4773   1.516   6.427   4.791
   89DOPC   C22 4774   1.597   0.080   4.770
   89DOPC   C23 4775   1.602   0.123   4.623
   89DOPC   C24 4776   1.679   0.254   4.612
   89DOPC   C25 4777   1.703   0.312   4.488
   89DOPC   C26 4778   1.654   0.245   4.360
   89DOPC   C27 4779   1.687   0.330   4.237
   89DOPC   C28 4780   1.640   0.261   4.109
   89DOPC   C29 4781   1.708   0.126   4.092
   89DOPC   C30 4782   1.659   0.056   3.966
   89DOPC   C31 4783   1.685   0.141   3.842
   89DOPC   C32 4784   2.046   0.285   5.364
   89DOPC   O33 4785   2.181   0.295   5.317
   89DOPC   C34 4786   2.226   0.422   5.300
   89DOPC   O35 4787   2.158   0.517   5.338
   89DOPC   C36 4788   2.365   0.440   5.239
   89DOPC   C37 4789   2.406   0.326   5.145
   89DOPC   C38 4790   2.543   0.355   5.084
   89DOPC   C39 4791   2.538   0.487   5.008
   89DOPC   C40 4792   2.670   0.521   4.939
   89DOPC   C41 4793   2.654   0.655   4.867
   89DOPC   C42 4794   2.778   0.692   4.785
   89DOPC   C43 4795   2.754   0.825   4.714
   89DOPC   C44 4796   2.849   0.875   4.625
   89DOPC   C45 4797   2.977   0.796   4.597
   89DOPC   C46 4798   3.070   0.876   4.506
   89DOPC   C47 4799   3.200   0.800   4.479
   89DOPC   C48 4800   3.297   0.887   4.400
   89DOPC   C49 4801   3.238   0.930   4.265
   89DOPC   C50 4802   3.338   1.016   4.188
   89DOPC   CA1 4803   3.282   1.059   4.053
   89DOPC   CA2 4804   3.384   1.143   3.976
   89DOPC   CA3 4805   1.635   0.071   3.716
   89DOPC   CA4 4806   1.660   0.157   3.592
   90DOPC    C1 4807   1.859   1.626   5.574
   90DOPC    C2 4808   1.856   1.417   5.466
   90DOPC    C3 4809   1.661   1.499   5.579
   90DOPC    N4 4810   1.807   1.489   5.585
   90DOPC    C5 4811   1.854   1.435   5.715
   90DOPC    C6 4812   1.834   1.284   5.747
   90DOPC    O7 4813   1.918   1.200   5.669
   90DOPC    P8 4814   1.920   1.056   5.727
   90DOPC    O9 4815   2.022   1.060   5.833
   90DOPC   O10 4816   1.782   1.015   5.754
   90DOPC   O11 4817   1.970   0.982   5.598
   90DOPC   C12 4818   1.869   0.995   5.498
   90DOPC   C13 4819   1.903   0.932   5.362
   90DOPC   O14 4820   1.888   0.787   5.349
   90DOPC   C15 4821   1.765   0.732   5.332
   90DOPC   O16 4822   1.666   0.785   5.383
   90DOPC   C17 4823   1.757   0.594   5.267
   90DOPC   C18 4824   1.847   0.585   5.144
   90DOPC   C19 4825   1.806   0.468   5.054
   90DOPC   C20 4826   1.901   0.460   4.934
   90DOPC   C21 4827   2.042   0.424   4.982
   90DOPC   C22 4828   2.145   0.429   4.869
   90DOPC   C23 4829   2.171   0.572   4.823
   90DOPC   C24 4830   2.278   0.574   4.714
   90DOPC   C25 4831   2.332   0.695   4.670
   90DOPC   C26 4832   2.285   0.827   4.730
   90DOPC   C27 4833   2.373   0.943   4.683
   90DOPC   C28 4834   2.373   0.958   4.530
   90DOPC   C29 4835   2.236   0.999   4.475
   90DOPC   C30 4836   2.194   1.136   4.526
   90DOPC   C31 4837   2.062   1.179   4.462
   90DOPC   C32 4838   2.041   0.986   5.324
   90DOPC   O33 4839   2.037   1.122   5.278
   90DOPC   C34 4840   2.157   1.171   5.239
   90DOPC   O35 4841   2.261   1.120   5.280
   90DOPC   C36 4842   2.159   1.308   5.170
   90DOPC   C37 4843   2.025   1.351   5.108
   90DOPC   C38 4844   1.992   1.280   4.977
   90DOPC   C39 4845   1.872   1.348   4.911
   90DOPC   C40 4846   1.833   1.277   4.781
   90DOPC   C41 4847   1.721   1.350   4.708
   90DOPC   C42 4848   1.675   1.266   4.588
   90DOPC   C43 4849   1.612   1.135   4.636
   90DOPC   C44 4850   1.583   1.034   4.546
   90DOPC   C45 4851   1.616   1.049   4.398
   90DOPC   C46 4852   1.586   0.918   4.324
   90DOPC   C47 4853   1.625   0.928   4.176
   90DOPC   C48 4854   1.597   0.795   4.106
   90DOPC   C49 4855   1.634   0.802   3.958
   90DOPC   C50 4856   1.605   0.669   3.888
   90DOPC   CA1 4857   1.643   0.676   3.740
   90DOPC   CA2 4858   1.611   0.544   3.670
   90DOPC   CA3 4859   2.075   1.186   4.310
   90DOPC   CA4 4860   1.944   1.229   4.245
   91DOPC    C1 4861   3.775   1.991   5.470
   91DOPC    C2 4862   3.990   2.052   5.534
   91DOPC    C3 4863   3.955   1.983   5.312
   91DOPC    N4 4864   3.916   1.956   5.451
   91DOPC    C5 4865   3.952   1.819   5.498
   91DOPC    C6 4866   3.891   1.698   5.422
   91DOPC    O7 4867   3.946   1.573   5.463
   91DOPC    P8 4868   3.880   1.460   5.377
   91DOPC    O9 4869   3.938   1.327   5.405
   91DOPC   O10 4870   3.736   1.485   5.364
   91DOPC   O11 4871   3.942   1.507   5.242
   91DOPC   C12 4872   3.898   1.421   5.137
   91DOPC   C13 4873   3.956   1.462   5.000
   91DOPC   O14 4874   4.092   1.418   4.972
   91DOPC   C15 4875   4.112   1.291   4.930
   91DOPC   O16 4876   4.018   1.212   4.918
   91DOPC   C17 4877   4.257   1.252   4.900
   91DOPC   C18 4878   4.313   1.335   4.784
   91DOPC   C19 4879   4.462   1.307   4.764
   91DOPC   C20 4880   4.518   1.391   4.649
   91DOPC   C21 4881   4.443   1.360   4.520
   91DOPC   C22 4882   4.508   1.429   4.400
   91DOPC   C23 4883   4.434   1.394   4.271
   91DOPC   C24 4884   4.424   1.242   4.257
   91DOPC   C25 4885   4.380   1.185   4.138
   91DOPC   C26 4886   4.350   1.271   4.015
   91DOPC   C27 4887   4.295   1.183   3.903
   91DOPC   C28 4888   4.390   1.067   3.878
   91DOPC   C29 4889   4.336   0.971   3.772
   91DOPC   C30 4890   4.418   0.842   3.772
   91DOPC   C31 4891   4.410   0.778   3.911
   91DOPC   C32 4892   3.935   1.614   4.994
   91DOPC   O33 4893   3.803   1.653   4.958
   91DOPC   C34 4894   3.782   1.786   4.959
   91DOPC   O35 4895   3.849   1.861   5.029
   91DOPC   C36 4896   3.655   1.831   4.885
   91DOPC   C37 4897   3.674   1.963   4.811
   91DOPC   C38 4898   3.554   1.988   4.721
   91DOPC   C39 4899   3.570   2.116   4.640
   91DOPC   C40 4900   3.464   2.118   4.530
   91DOPC   C41 4901   3.480   2.237   4.436
   91DOPC   C42 4902   3.400   2.209   4.309
   91DOPC   C43 4903   3.453   2.079   4.247
   91DOPC   C44 4904   3.397   2.025   4.133
   91DOPC   C45 4905   3.279   2.093   4.063
   91DOPC   C46 4906   3.232   2.009   3.945
   91DOPC   C47 4907   3.114   2.074   3.874
   91DOPC   C48 4908   3.065   1.985   3.759
   91DOPC   C49 4909   2.943   2.047   3.691
   91DOPC   C50 4910   2.891   1.956   3.580
   91DOPC   CA1 4911   2.768   2.017   3.512
   91DOPC   CA2 4912   2.715   1.925   3.402
   91DOPC   CA3 4913   4.490   0.648   3.919
   91DOPC   CA4 4914   4.484   0.590   4.061
   92DOPC    C1 4915   3.402   2.716   5.496
   92DOPC    C2 4916   3.523   2.529   5.404
   92DOPC    C3 4917   3.463   2.530   5.631
   92DOPC    N4 4918   3.507   2.616   5.521
   92DOPC    C5 4919   3.634   2.682   5.562
   92DOPC    C6 4920   3.703   2.772   5.457
   92DOPC    O7 4921   3.827   2.831   5.499
   92DOPC    P8 4922   3.948   2.741   5.453
   92DOPC    O9 4923   4.073   2.797   5.509
   92DOPC   O10 4924   3.912   2.599   5.458
   92DOPC   O11 4925   3.934   2.782   5.303
   92DOPC   C12 4926   4.000   2.904   5.272
   92DOPC   C13 4927   3.931   2.974   5.154
   92DOPC   O14 4928   4.018   3.056   5.070
   92DOPC   C15 4929   4.079   3.172   5.108
   92DOPC   O16 4930   4.051   3.227   5.216
   92DOPC   C17 4931   4.174   3.236   5.007
   92DOPC   C18 4932   4.108   3.349   4.927
   92DOPC   C19 4933   4.004   3.296   4.828
   92DOPC   C20 4934   3.936   3.410   4.753
   92DOPC   C21 4935   3.842   3.354   4.646
   92DOPC   C22 4936   3.772   3.463   4.566
   92DOPC   C23 4937   3.692   3.399   4.452
   92DOPC   C24 4938   3.620   3.503   4.366
   92DOPC   C25 4939   3.560   3.462   4.247
   92DOPC   C26 4940   3.569   3.314   4.207
   92DOPC   C27 4941   3.525   3.293   4.063
   92DOPC   C28 4942   3.537   3.146   4.022
   92DOPC   C29 4943   3.506   3.127   3.874
   92DOPC   C30 4944   3.521   2.981   3.831
   92DOPC   C31 4945   3.496   2.966   3.681
   92DOPC   C32 4946   3.804   3.039   5.215
   92DOPC   O33 4947   3.689   3.042   5.129
   92DOPC   C34 4948   3.582   3.111   5.176
   92DOPC   O35 4949   3.574   3.140   5.295
   92DOPC   C36 4950   3.466   3.126   5.077
   92DOPC   C37 4951   3.518   3.168   4.939
   92DOPC   C38 4952   3.414   3.141   4.830
   92DOPC   C39 4953   3.472   3.174   4.693
   92DOPC   C40 4954   3.381   3.124   4.581
   92DOPC   C41 4955   3.360   2.973   4.594
   92DOPC   C42 4956   3.286   2.914   4.474
   92DOPC   C43 4957   3.264   2.764   4.493
   92DOPC   C44 4958   3.218   2.686   4.388
   92DOPC   C45 4959   3.194   2.749   4.251
   92DOPC   C46 4960   3.156   2.644   4.146
   92DOPC   C47 4961   3.268   2.541   4.129
   92DOPC   C48 4962   3.397   2.607   4.081
   92DOPC   C49 4963   3.511   2.505   4.071
   92DOPC   C50 4964   3.641   2.572   4.027
   92DOPC   CA1 4965   3.756   2.471   4.022
   92DOPC   CA2 4966   3.780   2.409   4.160
   92DOPC   CA3 4967   3.510   2.820   3.636
   92DOPC   CA4 4968   3.407   2.731   3.704
   93DOPC    C1 4969   2.091   5.404   6.261
   93DOPC    C2 4970   2.097   5.264   6.451
   93DOPC    C3 4971   2.154   5.172   6.244
   93DOPC    N4 4972   2.165   5.294   6.325
   93DOPC    C5 4973   2.308   5.326   6.353
   93DOPC    C6 4974   2.391   5.403   6.248
   93DOPC    O7 4975   2.399   5.343   6.119
   93DOPC    P8 4976   2.461   5.451   6.024
   93DOPC    O9 4977   2.351   5.546   6.001
   93DOPC   O10 4978   2.586   5.492   6.089
   93DOPC   O11 4979   2.492   5.367   5.897
   93DOPC   C12 4980   2.371   5.326   5.834
   93DOPC   C13 4981   2.392   5.275   5.691
   93DOPC   O14 4982   2.461   5.147   5.682
   93DOPC   C15 4983   2.389   5.036   5.653
   93DOPC   O16 4984   2.269   5.030   5.678
   93DOPC   C17 4985   2.473   4.912   5.620
   93DOPC   C18 4986   2.469   4.876   5.472
   93DOPC   C19 4987   2.536   4.977   5.379
   93DOPC   C20 4988   2.521   4.927   5.235
   93DOPC   C21 4989   2.583   5.020   5.130
   93DOPC   C22 4990   2.556   4.960   4.992
   93DOPC   C23 4991   2.612   5.043   4.876
   93DOPC   C24 4992   2.764   5.055   4.884
   93DOPC   C25 4993   2.835   5.096   4.772
   93DOPC   C26 4994   2.761   5.126   4.641
   93DOPC   C27 4995   2.860   5.149   4.527
   93DOPC   C28 4996   2.787   5.178   4.396
   93DOPC   C29 4997   2.886   5.189   4.280
   93DOPC   C30 4998   2.964   5.059   4.264
   93DOPC   C31 4999   3.064   5.067   4.148
   93DOPC   C32 5000   2.468   5.387   5.617
   93DOPC   O33 5001   2.415   5.425   5.489
   93DOPC   C34 5002   2.308   5.507   5.491
   93DOPC   O35 5003   2.268   5.555   5.598
   93DOPC   C36 5004   2.248   5.549   5.357
   93DOPC   C37 5005   2.334   5.507   5.237
   93DOPC   C38 5006   2.269   5.552   5.106
   93DOPC   C39 5007   2.351   5.507   4.986
   93DOPC   C40 5008   2.288   5.556   4.856
   93DOPC   C41 5009   2.369   5.512   4.734
   93DOPC   C42 5010   2.309   5.567   4.605
   93DOPC   C43 5011   2.306   5.720   4.609
   93DOPC   C44 5012   2.262   5.792   4.499
   93DOPC   C45 5013   2.215   5.720   4.372
   93DOPC   C46 5014   2.186   5.819   4.260
   93DOPC   C47 5015   2.139   5.747   4.134
   93DOPC   C48 5016   2.009   5.671   4.159
   93DOPC   C49 5017   1.965   5.595   4.034
   93DOPC   C50 5018   1.944   5.692   3.916
   93DOPC   CA1 5019   1.901   5.616   3.790
   93DOPC   CA2 5020   1.770   5.541   3.813
   93DOPC   CA3 5021   3.141   4.936   4.134
   93DOPC   CA4 5022   3.242   4.943   4.019
   94DOPC    C1 5023   1.849   6.270   5.894
   94DOPC    C2 5024   1.885   6.069   6.012
   94DOPC    C3 5025   1.922   6.284   6.116
   94DOPC    N4 5026   1.936   6.205   5.992
   94DOPC    C5 5027   2.076   6.207   5.941
   94DOPC    C6 5028   2.187   6.143   6.028
   94DOPC    O7 5029   2.317   6.168   5.975
   94DOPC    P8 5030   2.429   6.103   6.065
   94DOPC    O9 5031   2.554   6.180   6.053
   94DOPC   O10 5032   2.373   6.068   6.196
   94DOPC   O11 5033   2.441   5.970   5.984
   94DOPC   C12 5034   2.504   5.995   5.859
   94DOPC   C13 5035   2.511   5.867   5.776
   94DOPC   O14 5036   2.587   5.881   5.650
   94DOPC   C15 5037   2.604   5.769   5.575
   94DOPC   O16 5038   2.617   5.660   5.630
   94DOPC   C17 5039   2.636   5.788   5.426
   94DOPC   C18 5040   2.544   5.891   5.360
   94DOPC   C19 5041   2.558   5.887   5.208
   94DOPC   C20 5042   2.475   5.996   5.141
   94DOPC   C21 5043   2.484   5.988   4.988
   94DOPC   C22 5044   2.413   6.106   4.923
   94DOPC   C23 5045   2.420   6.099   4.770
   94DOPC   C24 5046   2.362   6.226   4.707
   94DOPC   C25 5047   2.362   6.241   4.569
   94DOPC   C26 5048   2.416   6.128   4.481
   94DOPC   C27 5049   2.429   6.172   4.335
   94DOPC   C28 5050   2.297   6.224   4.278
   94DOPC   C29 5051   2.316   6.260   4.131
   94DOPC   C30 5052   2.193   6.330   4.073
   94DOPC   C31 5053   2.215   6.362   3.924
   94DOPC   C32 5054   2.364   5.824   5.760
   94DOPC   O33 5055   2.281   5.915   5.685
   94DOPC   C34 5056   2.154   5.871   5.672
   94DOPC   O35 5057   2.104   5.798   5.757
   94DOPC   C36 5058   2.070   5.940   5.564
   94DOPC   C37 5059   2.122   5.904   5.425
   94DOPC   C38 5060   2.038   5.965   5.313
   94DOPC   C39 5061   2.094   5.920   5.178
   94DOPC   C40 5062   2.011   5.969   5.060
   94DOPC   C41 5063   2.074   5.917   4.930
   94DOPC   C42 5064   1.998   5.962   4.806
   94DOPC   C43 5065   1.988   6.115   4.798
   94DOPC   C44 5066   1.950   6.175   4.679
   94DOPC   C45 5067   1.925   6.087   4.556
   94DOPC   C46 5068   1.894   6.172   4.433
   94DOPC   C47 5069   1.880   6.082   4.310
   94DOPC   C48 5070   1.850   6.163   4.184
   94DOPC   C49 5071   1.846   6.071   4.062
   94DOPC   C50 5072   1.818   6.149   3.934
   94DOPC   CA1 5073   1.817   6.056   3.813
   94DOPC   CA2 5074   1.791   6.134   3.684
   94DOPC   CA3 5075   2.098   6.442   3.867
   94DOPC   CA4 5076   2.084   0.100   3.941
   95DOPC    C1 5077   4.173   3.687   5.715
   95DOPC    C2 5078   4.144   3.797   5.504
   95DOPC    C3 5079   4.065   3.575   5.539
   95DOPC    N4 5080   4.082   3.707   5.602
   95DOPC    C5 5081   3.947   3.753   5.643
   95DOPC    C6 5082   3.938   3.888   5.718
   95DOPC    O7 5083   3.806   3.920   5.761
   95DOPC    P8 5084   3.814   4.050   5.848
   95DOPC    O9 5085   3.688   4.063   5.925
   95DOPC   O10 5086   3.946   4.056   5.912
   95DOPC   O11 5087   3.811   4.148   5.727
   95DOPC   C12 5088   3.683   4.152   5.665
   95DOPC   C13 5089   3.693   4.214   5.525
   95DOPC   O14 5090   3.566   4.266   5.473
   95DOPC   C15 5091   3.565   4.391   5.420
   95DOPC   O16 5092   3.650   4.474   5.457
   95DOPC   C17 5093   3.438   4.432   5.346
   95DOPC   C18 5094   3.464   4.529   5.230
   95DOPC   C19 5095   3.330   4.579   5.176
   95DOPC   C20 5096   3.341   4.685   5.068
   95DOPC   C21 5097   3.387   4.633   4.931
   95DOPC   C22 5098   3.379   4.749   4.832
   95DOPC   C23 5099   3.417   4.713   4.688
   95DOPC   C24 5100   3.409   4.840   4.603
   95DOPC   C25 5101   3.442   4.847   4.468
   95DOPC   C26 5102   3.485   4.728   4.382
   95DOPC   C27 5103   3.366   4.643   4.335
   95DOPC   C28 5104   3.409   4.547   4.224
   95DOPC   C29 5105   3.291   4.461   4.178
   95DOPC   C30 5106   3.327   4.377   4.055
   95DOPC   C31 5107   3.362   4.468   3.937
   95DOPC   C32 5108   3.763   4.107   5.440
   95DOPC   O33 5109   3.683   3.991   5.411
   95DOPC   C34 5110   3.744   3.898   5.334
   95DOPC   O35 5111   3.867   3.884   5.340
   95DOPC   C36 5112   3.654   3.798   5.261
   95DOPC   C37 5113   3.723   3.749   5.133
   95DOPC   C38 5114   3.644   3.645   5.054
   95DOPC   C39 5115   3.515   3.703   4.995
   95DOPC   C40 5116   3.454   3.603   4.896
   95DOPC   C41 5117   3.333   3.663   4.825
   95DOPC   C42 5118   3.284   3.571   4.713
   95DOPC   C43 5119   3.167   3.635   4.639
   95DOPC   C44 5120   3.113   3.576   4.525
   95DOPC   C45 5121   3.171   3.445   4.469
   95DOPC   C46 5122   3.099   3.409   4.339
   95DOPC   C47 5123   3.151   3.279   4.277
   95DOPC   C48 5124   3.081   3.254   4.144
   95DOPC   C49 5125   3.130   3.126   4.075
   95DOPC   C50 5126   3.064   3.111   3.938
   95DOPC   CA1 5127   3.112   2.984   3.867
   95DOPC   CA2 5128   3.049   2.972   3.728
   95DOPC   CA3 5129   3.392   4.386   3.811
   95DOPC   CA4 5130   3.424   4.477   3.693
   96DOPC    C1 5131   3.088   4.600   5.962
   96DOPC    C2 5132   3.173   4.388   6.018
   96DOPC    C3 5133   3.102   4.436   5.794
   96DOPC    N4 5134   3.072   4.457   5.936
   96DOPC    C5 5135   2.933   4.419   5.974
   96DOPC    C6 5136   2.893   4.269   5.970
   96DOPC    O7 5137   2.887   4.215   5.839
   96DOPC    P8 5138   2.885   4.059   5.850
   96DOPC    O9 5139   3.027   4.032   5.880
   96DOPC   O10 5140   2.773   4.030   5.941
   96DOPC   O11 5141   2.850   4.030   5.702
   96DOPC   C12 5142   2.968   4.045   5.624
   96DOPC   C13 5143   2.943   4.046   5.472
   96DOPC   O14 5144   2.913   4.178   5.417
   96DOPC   C15 5145   3.010   4.272   5.405
   96DOPC   O16 5146   3.121   4.256   5.456
   96DOPC   C17 5147   2.966   4.405   5.345
   96DOPC   C18 5148   2.994   4.414   5.195
   96DOPC   C19 5149   2.932   4.541   5.137
   96DOPC   C20 5150   2.974   4.563   4.991
   96DOPC   C21 5151   2.909   4.690   4.936
   96DOPC   C22 5152   2.966   4.728   4.799
   96DOPC   C23 5153   2.949   4.616   4.696
   96DOPC   C24 5154   3.002   4.661   4.560
   96DOPC   C25 5155   3.002   4.573   4.453
   96DOPC   C26 5156   2.951   4.430   4.471
   96DOPC   C27 5157   2.958   4.352   4.340
   96DOPC   C28 5158   2.873   4.418   4.231
   96DOPC   C29 5159   2.878   4.338   4.101
   96DOPC   C30 5160   2.792   4.403   3.993
   96DOPC   C31 5161   2.797   4.323   3.863
   96DOPC   C32 5162   2.833   3.942   5.449
   96DOPC   O33 5163   2.849   3.868   5.327
   96DOPC   C34 5164   2.745   3.793   5.287
   96DOPC   O35 5165   2.637   3.794   5.347
   96DOPC   C36 5166   2.764   3.717   5.155
   96DOPC   C37 5167   2.872   3.781   5.068
   96DOPC   C38 5168   2.889   3.709   4.934
   96DOPC   C39 5169   2.762   3.715   4.850
   96DOPC   C40 5170   2.786   3.647   4.716
   96DOPC   C41 5171   2.666   3.658   4.622
   96DOPC   C42 5172   2.699   3.592   4.488
   96DOPC   C43 5173   2.585   3.607   4.387
   96DOPC   C44 5174   2.601   3.555   4.259
   96DOPC   C45 5175   2.730   3.483   4.222
   96DOPC   C46 5176   2.728   3.433   4.077
   96DOPC   C47 5177   2.714   3.550   3.979
   96DOPC   C48 5178   2.713   3.500   3.835
   96DOPC   C49 5179   2.700   3.616   3.736
   96DOPC   C50 5180   2.817   3.714   3.750
   96DOPC   CA1 5181   2.804   3.830   3.652
   96DOPC   CA2 5182   2.921   3.927   3.666
   96DOPC   CA3 5183   2.710   4.388   3.755
   96DOPC   CA4 5184   2.716   4.308   3.625
   97DOPC    C1 5185   4.111   5.437   1.777
   97DOPC    C2 5186   4.228   5.249   1.856
   97DOPC    C3 5187   4.025   5.305   1.961
   97DOPC    N4 5188   4.145   5.363   1.899
   97DOPC    C5 5189   4.221   5.440   2.001
   97DOPC    C6 5190   4.167   5.578   2.047
   97DOPC    O7 5191   4.203   5.683   1.957
   97DOPC    P8 5192   4.090   5.790   1.965
   97DOPC    O9 5193   4.118   5.895   1.866
   97DOPC   O10 5194   3.965   5.715   1.958
   97DOPC   O11 5195   4.111   5.845   2.110
   97DOPC   C12 5196   4.216   5.941   2.104
   97DOPC   C13 5197   4.239   6.022   2.233
   97DOPC   O14 5198   4.355   5.976   2.310
   97DOPC   C15 5199   4.477   6.016   2.267
   97DOPC   O16 5200   4.487   6.087   2.167
   97DOPC   C17 5201   4.599   5.971   2.348
   97DOPC   C18 5202   4.577   5.989   2.498
   97DOPC   C19 5203   4.707   5.962   2.574
   97DOPC   C20 5204   4.687   5.980   2.725
   97DOPC   C21 5205   4.818   5.959   2.800
   97DOPC   C22 5206   4.799   5.974   2.951
   97DOPC   C23 5207   4.932   5.955   3.022
   97DOPC   C24 5208   4.919   5.970   3.174
   97DOPC   C25 5209   5.033   5.954   3.252
   97DOPC   C26 5210   5.165   5.921   3.183
   97DOPC   C27 5211   5.279   5.902   3.283
   97DOPC   C28 5212   5.410   5.870   3.211
   97DOPC   C29 5213   5.524   5.852   3.311
   97DOPC   C30 5214   5.655   5.820   3.239
   97DOPC   C31 5215   5.768   5.801   3.341
   97DOPC   C32 5216   4.104   6.029   2.306
   97DOPC   O33 5217   4.093   6.142   2.394
   97DOPC   C34 5218   3.980   6.149   2.469
   97DOPC   O35 5219   3.890   6.067   2.457
   97DOPC   C36 5220   3.976   6.266   2.568
   97DOPC   C37 5221   3.932   6.223   2.708
   97DOPC   C38 5222   3.958   6.336   2.807
   97DOPC   C39 5223   4.107   6.369   2.810
   97DOPC   C40 5224   4.140   0.005   2.909
   97DOPC   C41 5225   4.070   0.136   2.871
   97DOPC   C42 5226   4.099   0.244   2.975
   97DOPC   C43 5227   4.031   0.376   2.938
   97DOPC   C44 5228   4.039   0.484   3.025
   97DOPC   C45 5229   4.114   0.469   3.158
   97DOPC   C46 5230   4.105   0.598   3.240
   97DOPC   C47 5231   4.181   0.584   3.372
   97DOPC   C48 5232   4.167   0.711   3.456
   97DOPC   C49 5233   4.020   0.739   3.488
   97DOPC   C50 5234   4.005   0.866   3.574
   97DOPC   CA1 5235   3.858   0.892   3.607
   97DOPC   CA2 5236   3.844   1.017   3.694
   97DOPC   CA3 5237   5.899   5.764   3.271
   97DOPC   CA4 5238   6.010   5.741   3.374
   98DOPC    C1 5239   0.323   1.785   1.976
   98DOPC    C2 5240   0.121   1.891   2.042
   98DOPC    C3 5241   0.131   1.769   1.837
   98DOPC    N4 5242   0.206   1.858   1.927
   98DOPC    C5 5243   0.256   1.981   1.860
   98DOPC    C6 5244   0.152   2.065   1.783
   98DOPC    O7 5245   0.202   2.193   1.746
   98DOPC    P8 5246   0.093   2.261   1.656
   98DOPC    O9 5247   0.164   2.380   1.609
   98DOPC   O10 5248   0.044   2.157   1.563
   98DOPC   O11 5249   6.581   2.294   1.777
   98DOPC   C12 5250   0.041   2.420   1.829
   98DOPC   C13 5251   6.558   2.461   1.962
   98DOPC   O14 5252   0.026   2.593   2.004
   98DOPC   C15 5253   6.533   2.667   2.091
   98DOPC   O16 5254   6.410   2.657   2.092
   98DOPC   C17 5255   0.026   2.789   2.144
   98DOPC   C18 5256   6.571   2.828   2.287
   98DOPC   C19 5257   0.109   2.897   2.353
   98DOPC   C20 5258   0.158   3.016   2.270
   98DOPC   C21 5259   0.286   3.075   2.330
   98DOPC   C22 5260   0.260   3.129   2.471
   98DOPC   C23 5261   0.389   3.181   2.535
   98DOPC   C24 5262   0.456   3.288   2.450
   98DOPC   C25 5263   0.562   3.362   2.502
   98DOPC   C26 5264   0.609   3.336   2.645
   98DOPC   C27 5265   0.721   3.432   2.687
   98DOPC   C28 5266   0.846   3.413   2.600
   98DOPC   C29 5267   0.898   3.270   2.611
   98DOPC   C30 5268   1.021   3.249   2.522
   98DOPC   C31 5269   1.062   3.102   2.520
   98DOPC   C32 5270   0.010   2.346   2.058
   98DOPC   O33 5271   6.541   2.360   2.191
   98DOPC   C34 5272   6.562   2.255   2.274
   98DOPC   O35 5273   0.064   2.169   2.246
   98DOPC   C36 5274   6.502   2.268   2.415
   98DOPC   C37 5275   6.362   2.207   2.430
   98DOPC   C38 5276   6.259   2.274   2.339
   98DOPC   C39 5277   6.117   2.225   2.368
   98DOPC   C40 5278   6.020   2.286   2.266
   98DOPC   C41 5279   5.875   2.255   2.299
   98DOPC   C42 5280   5.831   2.323   2.429
   98DOPC   C43 5281   5.687   2.287   2.464
   98DOPC   C44 5282   5.622   2.359   2.564
   98DOPC   C45 5283   5.697   2.474   2.631
   98DOPC   C46 5284   5.610   2.548   2.732
   98DOPC   C47 5285   5.685   2.673   2.778
   98DOPC   C48 5286   5.716   2.759   2.655
   98DOPC   C49 5287   5.798   2.883   2.691
   98DOPC   C50 5288   5.826   2.964   2.564
   98DOPC   CA1 5289   5.909   3.089   2.595
   98DOPC   CA2 5290   5.934   3.170   2.468
   98DOPC   CA3 5291   1.182   3.080   2.429
   98DOPC   CA4 5292   1.214   2.931   2.417
   99DOPC    C1 5293   2.435   1.201   1.586
   99DOPC    C2 5294   2.272   1.058   1.679
   99DOPC    C3 5295   2.260   1.113   1.449
   99DOPC    N4 5296   2.293   1.166   1.582
   99DOPC    C5 5297   2.203   1.278   1.619
   99DOPC    C6 5298   2.212   1.409   1.537
   99DOPC    O7 5299   2.312   1.500   1.584
   99DOPC    P8 5300   2.316   1.619   1.483
   99DOPC    O9 5301   2.414   1.721   1.526
   99DOPC   O10 5302   2.321   1.557   1.350
   99DOPC   O11 5303   2.174   1.677   1.514
   99DOPC   C12 5304   2.172   1.729   1.646
   99DOPC   C13 5305   2.033   1.778   1.688
   99DOPC   O14 5306   2.029   1.815   1.830
   99DOPC   C15 5307   1.929   1.891   1.880
   99DOPC   O16 5308   1.831   1.920   1.812
   99DOPC   C17 5309   1.944   1.930   2.028
   99DOPC   C18 5310   1.873   1.829   2.118
   99DOPC   C19 5311   1.926   1.836   2.261
   99DOPC   C20 5312   1.849   1.738   2.350
   99DOPC   C21 5313   1.907   1.727   2.491
   99DOPC   C22 5314   1.819   1.634   2.575
   99DOPC   C23 5315   1.882   1.604   2.711
   99DOPC   C24 5316   2.017   1.533   2.695
   99DOPC   C25 5317   2.079   1.477   2.805
   99DOPC   C26 5318   2.013   1.484   2.943
   99DOPC   C27 5319   2.097   1.412   3.048
   99DOPC   C28 5320   2.033   1.423   3.187
   99DOPC   C29 5321   2.116   1.349   3.291
   99DOPC   C30 5322   2.055   1.362   3.430
   99DOPC   C31 5323   2.137   1.286   3.534
   99DOPC   C32 5324   1.938   1.664   1.644
   99DOPC   O33 5325   1.950   1.539   1.715
   99DOPC   C34 5326   1.874   1.531   1.827
   99DOPC   O35 5327   1.761   1.579   1.827
   99DOPC   C36 5328   1.916   1.426   1.930
   99DOPC   C37 5329   2.025   1.482   2.021
   99DOPC   C38 5330   2.050   1.389   2.140
   99DOPC   C39 5331   1.920   1.371   2.220
   99DOPC   C40 5332   1.946   1.293   2.349
   99DOPC   C41 5333   1.816   1.270   2.426
   99DOPC   C42 5334   1.845   1.198   2.558
   99DOPC   C43 5335   1.715   1.167   2.634
   99DOPC   C44 5336   1.723   1.112   2.761
   99DOPC   C45 5337   1.859   1.089   2.825
   99DOPC   C46 5338   1.845   1.034   2.968
   99DOPC   C47 5339   1.981   1.021   3.035
   99DOPC   C48 5340   1.967   0.970   3.178
   99DOPC   C49 5341   1.902   0.831   3.180
   99DOPC   C50 5342   1.891   0.778   3.323
   99DOPC   CA1 5343   1.827   0.638   3.323
   99DOPC   CA2 5344   1.688   0.643   3.261
   99DOPC   CA3 5345   2.077   1.302   3.674
   99DOPC   CA4 5346   2.158   1.226   3.779
  100DOPC    C1 5347   4.119   4.647   1.548
  100DOPC    C2 5348   4.196   4.766   1.736
  100DOPC    C3 5349   4.154   4.532   1.752
  100DOPC    N4 5350   4.106   4.658   1.694
  100DOPC    C5 5351   3.966   4.693   1.726
  100DOPC    C6 5352   3.917   4.681   1.873
  100DOPC    O7 5353   3.886   4.547   1.908
  100DOPC    P8 5354   3.879   4.532   2.063
  100DOPC    O9 5355   3.790   4.641   2.105
  100DOPC   O10 5356   3.851   4.390   2.086
  100DOPC   O11 5357   4.027   4.569   2.096
  100DOPC   C12 5358   4.065   4.506   2.218
  100DOPC   C13 5359   4.212   4.530   2.256
  100DOPC   O14 5360   4.257   4.453   2.372
  100DOPC   C15 5361   4.319   4.334   2.352
  100DOPC   O16 5362   4.356   4.301   2.240
  100DOPC   C17 5363   4.348   4.250   2.478
  100DOPC   C18 5364   4.443   4.134   2.450
  100DOPC   C19 5365   4.456   4.043   2.573
  100DOPC   C20 5366   4.553   3.928   2.545
  100DOPC   C21 5367   4.560   3.835   2.666
  100DOPC   C22 5368   4.659   3.721   2.643
  100DOPC   C23 5369   4.658   3.625   2.762
  100DOPC   C24 5370   4.697   3.695   2.892
  100DOPC   C25 5371   4.689   3.625   3.012
  100DOPC   C26 5372   4.640   3.480   3.008
  100DOPC   C27 5373   4.625   3.419   3.148
  100DOPC   C28 5374   4.528   3.500   3.234
  100DOPC   C29 5375   4.495   3.427   3.363
  100DOPC   C30 5376   4.426   3.294   3.332
  100DOPC   C31 5377   4.388   3.218   3.459
  100DOPC   C32 5378   4.229   4.683   2.268
  100DOPC   O33 5379   4.141   4.745   2.362
  100DOPC   C34 5380   4.151   4.879   2.378
  100DOPC   O35 5381   4.234   4.945   2.314
  100DOPC   C36 5382   4.056   4.940   2.481
  100DOPC   C37 5383   4.097   5.080   2.527
  100DOPC   C38 5384   4.003   5.127   2.639
  100DOPC   C39 5385   4.036   5.269   2.684
  100DOPC   C40 5386   3.948   5.309   2.803
  100DOPC   C41 5387   3.976   5.452   2.848
  100DOPC   C42 5388   3.895   5.485   2.974
  100DOPC   C43 5389   3.937   5.394   3.090
  100DOPC   C44 5390   3.874   5.405   3.213
  100DOPC   C45 5391   3.759   5.504   3.234
  100DOPC   C46 5392   3.719   5.511   3.381
  100DOPC   C47 5393   3.679   5.373   3.435
  100DOPC   C48 5394   3.639   5.382   3.582
  100DOPC   C49 5395   3.607   5.243   3.639
  100DOPC   C50 5396   3.567   5.251   3.787
  100DOPC   CA1 5397   3.441   5.336   3.805
  100DOPC   CA2 5398   3.400   5.341   3.953
  100DOPC   CA3 5399   4.314   3.088   3.424
  100DOPC   CA4 5400   4.277   3.010   3.550
  101DOPC    C1 5401   1.375   0.990   1.420
  101DOPC    C2 5402   1.555   0.982   1.268
  101DOPC    C3 5403   1.594   1.065   1.483
  101DOPC    N4 5404   1.495   1.062   1.375
  101DOPC    C5 5405   1.468   1.198   1.321
  101DOPC    C6 5406   1.391   1.301   1.408
  101DOPC    O7 5407   1.456   1.341   1.528
  101DOPC    P8 5408   1.356   1.436   1.604
  101DOPC    O9 5409   1.344   1.550   1.514
  101DOPC   O10 5410   1.246   1.342   1.629
  101DOPC   O11 5411   1.451   1.458   1.726
  101DOPC   C12 5412   1.452   1.342   1.807
  101DOPC   C13 5413   1.521   1.363   1.943
  101DOPC   O14 5414   1.504   1.248   2.031
  101DOPC   C15 5415   1.602   1.155   2.039
  101DOPC   O16 5416   1.690   1.149   1.953
  101DOPC   C17 5417   1.571   1.041   2.136
  101DOPC   C18 5418   1.692   0.986   2.211
  101DOPC   C19 5419   1.643   0.884   2.315
  101DOPC   C20 5420   1.756   0.829   2.402
  101DOPC   C21 5421   1.699   0.735   2.509
  101DOPC   C22 5422   1.809   0.683   2.601
  101DOPC   C23 5423   1.753   0.589   2.708
  101DOPC   C24 5424   1.867   0.537   2.797
  101DOPC   C25 5425   1.843   0.447   2.899
  101DOPC   C26 5426   1.701   0.397   2.928
  101DOPC   C27 5427   1.704   0.285   3.032
  101DOPC   C28 5428   1.785   0.166   2.981
  101DOPC   C29 5429   1.793   0.053   3.084
  101DOPC   C30 5430   1.861   0.101   3.212
  101DOPC   C31 5431   1.877   6.461   3.312
  101DOPC   C32 5432   1.456   1.491   1.999
  101DOPC   O33 5433   1.508   1.542   2.123
  101DOPC   C34 5434   1.445   1.653   2.166
  101DOPC   O35 5435   1.369   1.716   2.092
  101DOPC   C36 5436   1.487   1.709   2.302
  101DOPC   C37 5437   1.374   1.700   2.405
  101DOPC   C38 5438   1.368   1.563   2.473
  101DOPC   C39 5439   1.253   1.560   2.574
  101DOPC   C40 5440   1.260   1.437   2.665
  101DOPC   C41 5441   1.145   1.438   2.765
  101DOPC   C42 5442   1.161   1.328   2.870
  101DOPC   C43 5443   1.042   1.328   2.967
  101DOPC   C44 5444   1.044   1.248   3.080
  101DOPC   C45 5445   1.167   1.162   3.112
  101DOPC   C46 5446   1.146   1.082   3.241
  101DOPC   C47 5447   1.030   0.984   3.225
  101DOPC   C48 5448   1.005   0.903   3.352
  101DOPC   C49 5449   0.898   0.797   3.328
  101DOPC   C50 5450   0.869   0.717   3.456
  101DOPC   CA1 5451   0.814   0.809   3.565
  101DOPC   CA2 5452   0.781   0.731   3.692
  101DOPC   CA3 5453   1.961   6.349   3.252
  101DOPC   CA4 5454   1.981   6.234   3.351
  102DOPC    C1 5455   5.232   2.541   1.306
  102DOPC    C2 5456   5.447   2.444   1.303
  102DOPC    C3 5457   5.362   2.549   1.500
  102DOPC    N4 5458   5.328   2.464   1.386
  102DOPC    C5 5459   5.263   2.337   1.427
  102DOPC    C6 5460   5.345   2.236   1.511
  102DOPC    O7 5461   5.265   2.125   1.550
  102DOPC    P8 5462   5.353   2.022   1.628
  102DOPC    O9 5463   5.415   1.941   1.522
  102DOPC   O10 5464   5.430   2.097   1.728
  102DOPC   O11 5465   5.230   1.945   1.688
  102DOPC   C12 5466   5.183   2.021   1.799
  102DOPC   C13 5467   5.044   1.979   1.848
  102DOPC   O14 5468   4.988   2.072   1.946
  102DOPC   C15 5469   4.880   2.146   1.910
  102DOPC   O16 5470   4.826   2.126   1.801
  102DOPC   C17 5471   4.829   2.248   2.011
  102DOPC   C18 5472   4.744   2.181   2.119
  102DOPC   C19 5473   4.703   2.281   2.227
  102DOPC   C20 5474   4.627   2.210   2.339
  102DOPC   C21 5475   4.589   2.306   2.451
  102DOPC   C22 5476   4.500   2.419   2.399
  102DOPC   C23 5477   4.451   2.506   2.515
  102DOPC   C24 5478   4.370   2.422   2.614
  102DOPC   C25 5479   4.317   2.480   2.729
  102DOPC   C26 5480   4.339   2.628   2.757
  102DOPC   C27 5481   4.275   2.667   2.891
  102DOPC   C28 5482   4.297   2.815   2.922
  102DOPC   C29 5483   4.244   2.850   3.061
  102DOPC   C30 5484   4.094   2.818   3.073
  102DOPC   C31 5485   4.044   2.850   3.214
  102DOPC   C32 5486   5.051   1.831   1.889
  102DOPC   O33 5487   5.169   1.792   1.960
  102DOPC   C34 5488   5.174   1.663   2.001
  102DOPC   O35 5489   5.087   1.583   1.967
  102DOPC   C36 5490   5.303   1.619   2.070
  102DOPC   C37 5491   5.304   1.660   2.218
  102DOPC   C38 5492   5.432   1.614   2.287
  102DOPC   C39 5493   5.444   1.461   2.288
  102DOPC   C40 5494   5.568   1.419   2.367
  102DOPC   C41 5495   5.560   1.480   2.507
  102DOPC   C42 5496   5.677   1.440   2.597
  102DOPC   C43 5497   5.666   1.519   2.728
  102DOPC   C44 5498   5.752   1.495   2.835
  102DOPC   C45 5499   5.859   1.386   2.830
  102DOPC   C46 5500   5.931   1.381   2.965
  102DOPC   C47 5501   6.027   1.263   2.976
  102DOPC   C48 5502   6.087   1.259   3.117
  102DOPC   C49 5503   6.176   1.137   3.138
  102DOPC   C50 5504   6.226   1.131   3.282
  102DOPC   CA1 5505   6.314   1.008   3.306
  102DOPC   CA2 5506   6.358   1.000   3.452
  102DOPC   CA3 5507   3.895   2.818   3.228
  102DOPC   CA4 5508   3.811   2.901   3.131
  103DOPC    C1 5509   5.353   1.632   1.659
  103DOPC    C2 5510   5.127   1.552   1.623
  103DOPC    C3 5511   5.247   1.653   1.450
  103DOPC    N4 5512   5.262   1.564   1.566
  103DOPC    C5 5513   5.313   1.434   1.517
  103DOPC    C6 5514   5.378   1.339   1.621
  103DOPC    O7 5515   5.288   1.295   1.723
  103DOPC    P8 5516   5.373   1.234   1.839
  103DOPC    O9 5517   5.458   1.134   1.773
  103DOPC   O10 5518   5.433   1.350   1.905
  103DOPC   O11 5519   5.257   1.167   1.919
  103DOPC   C12 5520   5.217   1.259   2.021
  103DOPC   C13 5521   5.145   1.191   2.138
  103DOPC   O14 5522   5.113   1.281   2.249
  103DOPC   C15 5523   4.984   1.316   2.274
  103DOPC   O16 5524   4.894   1.282   2.196
  103DOPC   C17 5525   4.962   1.421   2.382
  103DOPC   C18 5526   5.078   1.428   2.482
  103DOPC   C19 5527   5.077   1.563   2.555
  103DOPC   C20 5528   5.199   1.576   2.647
  103DOPC   C21 5529   5.213   1.721   2.694
  103DOPC   C22 5530   5.337   1.739   2.783
  103DOPC   C23 5531   5.324   1.662   2.915
  103DOPC   C24 5532   5.450   1.680   2.999
  103DOPC   C25 5533   5.454   1.638   3.131
  103DOPC   C26 5534   5.331   1.573   3.195
  103DOPC   C27 5535   5.356   1.550   3.345
  103DOPC   C28 5536   5.234   1.488   3.413
  103DOPC   C29 5537   5.110   1.575   3.395
  103DOPC   C30 5538   4.992   1.518   3.474
  103DOPC   C31 5539   4.865   1.600   3.449
  103DOPC   C32 5540   5.236   1.072   2.174
  103DOPC   O33 5541   5.374   1.102   2.202
  103DOPC   C34 5542   5.456   0.995   2.194
  103DOPC   O35 5543   5.425   0.895   2.129
  103DOPC   C36 5544   5.596   1.010   2.255
  103DOPC   C37 5545   5.608   0.921   2.379
  103DOPC   C38 5546   5.747   0.928   2.443
  103DOPC   C39 5547   5.782   1.070   2.488
  103DOPC   C40 5548   5.912   1.071   2.568
  103DOPC   C41 5549   6.030   1.019   2.486
  103DOPC   C42 5550   6.157   1.015   2.572
  103DOPC   C43 5551   6.189   1.155   2.627
  103DOPC   C44 5552   6.294   1.173   2.716
  103DOPC   C45 5553   6.380   1.056   2.763
  103DOPC   C46 5554   6.480   1.103   2.868
  103DOPC   C47 5555   6.567   0.988   2.920
  103DOPC   C48 5556   0.068   0.926   2.807
  103DOPC   C49 5557   0.156   0.812   2.859
  103DOPC   C50 5558   0.259   0.861   2.962
  103DOPC   CA1 5559   0.357   0.961   2.900
  103DOPC   CA2 5560   0.460   1.008   3.003
  103DOPC   CA3 5561   4.886   1.747   3.487
  103DOPC   CA4 5562   4.760   1.828   3.458
  104DOPC    C1 5563   4.821   3.988   2.025
  104DOPC    C2 5564   4.807   4.192   1.895
  104DOPC    C3 5565   4.921   4.185   2.099
  104DOPC    N4 5566   4.893   4.107   1.978
  104DOPC    C5 5567   5.022   4.078   1.910
  104DOPC    C6 5568   5.023   3.970   1.798
  104DOPC    O7 5569   5.150   3.958   1.736
  104DOPC    P8 5570   5.165   3.816   1.672
  104DOPC    O9 5571   5.032   3.771   1.626
  104DOPC   O10 5572   5.284   3.812   1.587
  104DOPC   O11 5573   5.199   3.751   1.811
  104DOPC   C12 5574   5.340   3.755   1.830
  104DOPC   C13 5575   5.389   3.721   1.972
  104DOPC   O14 5576   5.378   3.581   2.013
  104DOPC   C15 5577   5.490   3.513   2.044
  104DOPC   O16 5578   5.601   3.555   2.011
  104DOPC   C17 5579   5.471   3.381   2.119
  104DOPC   C18 5580   5.478   3.408   2.270
  104DOPC   C19 5581   5.474   3.280   2.354
  104DOPC   C20 5582   5.487   3.319   2.501
  104DOPC   C21 5583   5.493   3.198   2.594
  104DOPC   C22 5584   5.513   3.246   2.738
  104DOPC   C23 5585   5.527   3.131   2.837
  104DOPC   C24 5586   5.547   3.185   2.979
  104DOPC   C25 5587   5.569   3.098   3.085
  104DOPC   C26 5588   5.574   2.947   3.062
  104DOPC   C27 5589   5.595   2.874   3.195
  104DOPC   C28 5590   5.482   2.906   3.292
  104DOPC   C29 5591   5.496   2.829   3.423
  104DOPC   C30 5592   5.376   2.856   3.514
  104DOPC   C31 5593   5.381   2.769   3.640
  104DOPC   C32 5594   5.315   3.820   2.064
  104DOPC   O33 5595   5.374   3.950   2.069
  104DOPC   C34 5596   5.304   4.038   2.144
  104DOPC   O35 5597   5.189   4.012   2.179
  104DOPC   C36 5598   5.371   4.173   2.172
  104DOPC   C37 5599   5.326   4.236   2.305
  104DOPC   C38 5600   5.377   4.155   2.425
  104DOPC   C39 5601   5.324   4.213   2.557
  104DOPC   C40 5602   5.376   4.131   2.675
  104DOPC   C41 5603   5.320   4.183   2.808
  104DOPC   C42 5604   5.379   4.105   2.926
  104DOPC   C43 5605   5.324   4.156   3.059
  104DOPC   C44 5606   5.375   4.109   3.179
  104DOPC   C45 5607   5.487   4.006   3.180
  104DOPC   C46 5608   5.533   3.977   3.324
  104DOPC   C47 5609   5.646   3.874   3.326
  104DOPC   C48 5610   5.695   3.850   3.469
  104DOPC   C49 5611   5.746   3.979   3.532
  104DOPC   C50 5612   5.794   3.956   3.676
  104DOPC   CA1 5613   5.845   4.085   3.739
  104DOPC   CA2 5614   5.892   4.061   3.883
  104DOPC   CA3 5615   5.257   2.792   3.727
  104DOPC   CA4 5616   5.259   2.702   3.850
  105DOPC    C1 5617   1.503   1.846   1.830
  105DOPC    C2 5618   1.590   1.788   1.620
  105DOPC    C3 5619   1.533   2.015   1.660
  105DOPC    N4 5620   1.493   1.876   1.686
  105DOPC    C5 5621   1.362   1.841   1.628
  105DOPC    C6 5622   1.231   1.896   1.688
  105DOPC    O7 5623   1.206   2.035   1.667
  105DOPC    P8 5624   1.052   2.061   1.690
  105DOPC    O9 5625   1.044   2.207   1.668
  105DOPC   O10 5626   0.986   1.961   1.604
  105DOPC   O11 5627   1.051   2.021   1.841
  105DOPC   C12 5628   1.085   2.130   1.926
  105DOPC   C13 5629   1.194   2.096   2.029
  105DOPC   O14 5630   1.333   2.116   1.986
  105DOPC   C15 5631   1.385   2.241   1.984
  105DOPC   O16 5632   1.312   2.340   1.974
  105DOPC   C17 5633   1.537   2.250   1.966
  105DOPC   C18 5634   1.611   2.283   2.096
  105DOPC   C19 5635   1.598   2.175   2.204
  105DOPC   C20 5636   1.683   2.211   2.325
  105DOPC   C21 5637   1.677   2.106   2.436
  105DOPC   C22 5638   1.538   2.097   2.501
  105DOPC   C23 5639   1.540   1.994   2.614
  105DOPC   C24 5640   1.407   1.991   2.689
  105DOPC   C25 5641   1.386   1.896   2.789
  105DOPC   C26 5642   1.496   1.794   2.821
  105DOPC   C27 5643   1.448   1.691   2.924
  105DOPC   C28 5644   1.554   1.583   2.945
  105DOPC   C29 5645   1.503   1.473   3.039
  105DOPC   C30 5646   1.607   1.361   3.052
  105DOPC   C31 5647   1.554   1.244   3.136
  105DOPC   C32 5648   1.164   1.952   2.075
  105DOPC   O33 5649   1.062   1.940   2.175
  105DOPC   C34 5650   1.034   1.812   2.206
  105DOPC   O35 5651   1.069   1.719   2.134
  105DOPC   C36 5652   0.950   1.790   2.332
  105DOPC   C37 5653   0.800   1.785   2.303
  105DOPC   C38 5654   0.723   1.769   2.434
  105DOPC   C39 5655   0.766   1.640   2.504
  105DOPC   C40 5656   0.700   1.624   2.641
  105DOPC   C41 5657   0.746   1.492   2.702
  105DOPC   C42 5658   0.691   1.468   2.843
  105DOPC   C43 5659   0.738   1.575   2.942
  105DOPC   C44 5660   0.725   1.548   3.078
  105DOPC   C45 5661   0.667   1.412   3.119
  105DOPC   C46 5662   0.669   1.390   3.270
  105DOPC   C47 5663   0.606   1.255   3.302
  105DOPC   C48 5664   0.604   1.225   3.452
  105DOPC   C49 5665   0.746   1.218   3.510
  105DOPC   C50 5666   0.740   1.178   3.657
  105DOPC   CA1 5667   0.881   1.164   3.717
  105DOPC   CA2 5668   0.872   1.113   3.860
  105DOPC   CA3 5669   1.531   1.283   3.282
  105DOPC   CA4 5670   1.663   1.316   3.352
  106DOPC    C1 5671   0.428   0.445   1.489
  106DOPC    C2 5672   0.509   0.524   1.695
  106DOPC    C3 5673   0.578   0.630   1.493
  106DOPC    N4 5674   0.465   0.567   1.562
  106DOPC    C5 5675   0.344   0.653   1.573
  106DOPC    C6 5676   0.360   0.804   1.607
  106DOPC    O7 5677   0.413   0.834   1.736
  106DOPC    P8 5678   0.396   0.990   1.747
  106DOPC    O9 5679   0.491   1.046   1.650
  106DOPC   O10 5680   0.251   1.009   1.731
  106DOPC   O11 5681   0.444   1.011   1.894
  106DOPC   C12 5682   0.575   1.067   1.895
  106DOPC   C13 5683   0.637   1.084   2.035
  106DOPC   O14 5684   0.698   0.965   2.095
  106DOPC   C15 5685   0.816   0.917   2.048
  106DOPC   O16 5686   0.857   0.950   1.936
  106DOPC   C17 5687   0.880   0.801   2.124
  106DOPC   C18 5688   0.853   0.806   2.275
  106DOPC   C19 5689   0.904   0.678   2.341
  106DOPC   C20 5690   0.877   0.679   2.492
  106DOPC   C21 5691   0.919   0.548   2.557
  106DOPC   C22 5692   0.843   0.429   2.497
  106DOPC   C23 5693   0.866   0.303   2.579
  106DOPC   C24 5694   0.790   0.183   2.521
  106DOPC   C25 5695   0.765   0.073   2.602
  106DOPC   C26 5696   0.811   0.076   2.748
  106DOPC   C27 5697   0.754   6.435   2.828
  106DOPC   C28 5698   0.790   6.449   2.976
  106DOPC   C29 5699   0.722   6.343   3.061
  106DOPC   C30 5700   0.751   6.367   3.209
  106DOPC   C31 5701   0.675   6.269   3.298
  106DOPC   C32 5702   0.529   1.150   2.121
  106DOPC   O33 5703   0.539   1.292   2.131
  106DOPC   C34 5704   0.440   1.349   2.203
  106DOPC   O35 5705   0.350   1.281   2.252
  106DOPC   C36 5706   0.451   1.500   2.225
  106DOPC   C37 5707   0.341   1.553   2.319
  106DOPC   C38 5708   0.350   1.704   2.336
  106DOPC   C39 5709   0.235   1.757   2.421
  106DOPC   C40 5710   0.236   1.910   2.427
  106DOPC   C41 5711   0.362   1.964   2.495
  106DOPC   C42 5712   0.366   1.920   2.642
  106DOPC   C43 5713   0.487   1.980   2.714
  106DOPC   C44 5714   0.501   1.960   2.851
  106DOPC   C45 5715   0.399   1.875   2.926
  106DOPC   C46 5716   0.413   1.896   3.077
  106DOPC   C47 5717   0.386   2.042   3.110
  106DOPC   C48 5718   0.403   2.071   3.260
  106DOPC   C49 5719   0.371   2.218   3.289
  106DOPC   C50 5720   0.392   2.250   3.437
  106DOPC   CA1 5721   0.355   2.395   3.466
  106DOPC   CA2 5722   0.377   2.429   3.614
  106DOPC   CA3 5723   0.701   6.299   3.446
  106DOPC   CA4 5724   0.623   6.204   3.536
  107DOPC    C1 5725   4.361   3.527   1.506
  107DOPC    C2 5726   4.372   3.751   1.427
  107DOPC    C3 5727   4.570   3.619   1.444
  107DOPC    N4 5728   4.442   3.650   1.507
  107DOPC    C5 5729   4.457   3.689   1.649
  107DOPC    C6 5730   4.536   3.820   1.678
  107DOPC    O7 5731   4.541   3.854   1.817
  107DOPC    P8 5732   4.425   3.955   1.855
  107DOPC    O9 5733   4.498   4.072   1.908
  107DOPC   O10 5734   4.334   3.963   1.740
  107DOPC   O11 5735   4.363   3.868   1.968
  107DOPC   C12 5736   4.432   3.885   2.091
  107DOPC   C13 5737   4.385   3.790   2.203
  107DOPC   O14 5738   4.435   3.652   2.201
  107DOPC   C15 5739   4.567   3.625   2.226
  107DOPC   O16 5740   4.653   3.706   2.194
  107DOPC   C17 5741   4.603   3.476   2.240
  107DOPC   C18 5742   4.498   3.392   2.315
  107DOPC   C19 5743   4.524   3.384   2.466
  107DOPC   C20 5744   4.416   3.296   2.531
  107DOPC   C21 5745   4.442   3.267   2.679
  107DOPC   C22 5746   4.573   3.190   2.698
  107DOPC   C23 5747   4.587   3.134   2.840
  107DOPC   C24 5748   4.719   3.058   2.853
  107DOPC   C25 5749   4.749   2.983   2.966
  107DOPC   C26 5750   4.651   2.971   3.082
  107DOPC   C27 5751   4.705   2.875   3.188
  107DOPC   C28 5752   4.608   2.864   3.306
  107DOPC   C29 5753   4.661   2.768   3.413
  107DOPC   C30 5754   4.798   2.812   3.463
  107DOPC   C31 5755   4.847   2.725   3.579
  107DOPC   C32 5756   4.232   3.803   2.198
  107DOPC   O33 5757   4.178   3.899   2.290
  107DOPC   C34 5758   4.045   3.918   2.279
  107DOPC   O35 5759   3.982   3.873   2.184
  107DOPC   C36 5760   3.978   3.997   2.393
  107DOPC   C37 5761   3.970   4.146   2.361
  107DOPC   C38 5762   3.906   4.224   2.477
  107DOPC   C39 5763   3.989   4.211   2.605
  107DOPC   C40 5764   3.928   4.296   2.718
  107DOPC   C41 5765   4.013   4.289   2.845
  107DOPC   C42 5766   3.954   4.379   2.954
  107DOPC   C43 5767   4.039   4.377   3.080
  107DOPC   C44 5768   4.004   4.455   3.190
  107DOPC   C45 5769   3.879   4.544   3.183
  107DOPC   C46 5770   3.858   4.620   3.313
  107DOPC   C47 5771   3.734   4.710   3.306
  107DOPC   C48 5772   3.608   4.627   3.281
  107DOPC   C49 5773   3.485   4.717   3.274
  107DOPC   C50 5774   3.357   4.636   3.251
  107DOPC   CA1 5775   3.235   4.727   3.245
  107DOPC   CA2 5776   3.106   4.647   3.224
  107DOPC   CA3 5777   4.752   2.735   3.699
  107DOPC   CA4 5778   4.804   2.654   3.817
  108DOPC    C1 5779   6.496   4.410   1.493
  108DOPC    C2 5780   6.352   4.413   1.681
  108DOPC    C3 5781   6.462   4.212   1.612
  108DOPC    N4 5782   6.394   4.333   1.565
  108DOPC    C5 5783   6.283   4.305   1.471
  108DOPC    C6 5784   6.151   4.239   1.522
  108DOPC    O7 5785   6.167   4.108   1.576
  108DOPC    P8 5786   6.025   4.042   1.588
  108DOPC    O9 5787   5.934   4.095   1.486
  108DOPC   O10 5788   6.040   3.898   1.612
  108DOPC   O11 5789   5.986   4.106   1.725
  108DOPC   C12 5790   6.053   4.040   1.832
  108DOPC   C13 5791   6.005   4.085   1.970
  108DOPC   O14 5792   5.877   4.030   2.015
  108DOPC   C15 5793   5.878   3.906   2.070
  108DOPC   O16 5794   5.980   3.838   2.070
  108DOPC   C17 5795   5.744   3.853   2.121
  108DOPC   C18 5796   5.729   3.874   2.272
  108DOPC   C19 5797   5.606   3.800   2.324
  108DOPC   C20 5798   5.592   3.816   2.476
  108DOPC   C21 5799   5.477   3.730   2.529
  108DOPC   C22 5800   5.469   3.741   2.681
  108DOPC   C23 5801   5.366   3.643   2.738
  108DOPC   C24 5802   5.360   3.652   2.890
  108DOPC   C25 5803   5.289   3.561   2.967
  108DOPC   C26 5804   5.209   3.445   2.905
  108DOPC   C27 5805   5.068   3.487   2.860
  108DOPC   C28 5806   4.992   3.367   2.804
  108DOPC   C29 5807   5.060   3.310   2.680
  108DOPC   C30 5808   4.987   3.184   2.634
  108DOPC   C31 5809   5.045   3.128   2.504
  108DOPC   C32 5810   6.015   4.238   1.969
  108DOPC   O33 5811   6.146   4.286   2.003
  108DOPC   C34 5812   6.162   4.420   1.999
  108DOPC   O35 5813   6.091   4.489   1.926
  108DOPC   C36 5814   6.292   4.473   2.061
  108DOPC   C37 5815   6.278   4.500   2.211
  108DOPC   C38 5816   6.181   4.615   2.240
  108DOPC   C39 5817   6.175   4.644   2.390
  108DOPC   C40 5818   6.084   4.762   2.420
  108DOPC   C41 5819   6.090   4.795   2.569
  108DOPC   C42 5820   6.005   4.917   2.605
  108DOPC   C43 5821   6.026   4.953   2.752
  108DOPC   C44 5822   5.964   5.063   2.809
  108DOPC   C45 5823   5.868   5.151   2.728
  108DOPC   C46 5824   5.826   5.271   2.813
  108DOPC   C47 5825   5.766   5.223   2.946
  108DOPC   C48 5826   5.737   5.341   3.039
  108DOPC   C49 5827   5.690   5.289   3.176
  108DOPC   C50 5828   5.669   5.405   3.273
  108DOPC   CA1 5829   5.627   5.353   3.411
  108DOPC   CA2 5830   5.607   5.468   3.509
  108DOPC   CA3 5831   5.026   3.227   2.389
  108DOPC   CA4 5832   5.076   3.167   2.257
  109DOPC    C1 5833   2.165   3.937   1.721
  109DOPC    C2 5834   2.308   4.007   1.901
  109DOPC    C3 5835   2.143   3.841   1.937
  109DOPC    N4 5836   2.240   3.892   1.839
  109DOPC    C5 5837   2.331   3.781   1.806
  109DOPC    C6 5838   2.439   3.812   1.700
  109DOPC    O7 5839   2.532   3.707   1.677
  109DOPC    P8 5840   2.646   3.764   1.588
  109DOPC    O9 5841   2.730   3.652   1.542
  109DOPC   O10 5842   2.593   3.867   1.497
  109DOPC   O11 5843   2.720   3.843   1.700
  109DOPC   C12 5844   2.797   3.756   1.780
  109DOPC   C13 5845   2.862   3.824   1.901
  109DOPC   O14 5846   2.955   3.735   1.969
  109DOPC   C15 5847   3.087   3.766   1.968
  109DOPC   O16 5848   3.131   3.852   1.891
  109DOPC   C17 5849   3.179   3.670   2.043
  109DOPC   C18 5850   3.145   3.662   2.192
  109DOPC   C19 5851   3.228   3.554   2.259
  109DOPC   C20 5852   3.190   3.535   2.406
  109DOPC   C21 5853   3.266   3.414   2.461
  109DOPC   C22 5854   3.236   3.387   2.609
  109DOPC   C23 5855   3.318   3.265   2.653
  109DOPC   C24 5856   3.301   3.232   2.801
  109DOPC   C25 5857   3.373   3.125   2.852
  109DOPC   C26 5858   3.466   3.049   2.757
  109DOPC   C27 5859   3.535   2.931   2.825
  109DOPC   C28 5860   3.620   2.854   2.722
  109DOPC   C29 5861   3.684   2.730   2.784
  109DOPC   C30 5862   3.761   2.652   2.678
  109DOPC   C31 5863   3.823   2.525   2.737
  109DOPC   C32 5864   2.743   3.877   1.983
  109DOPC   O33 5865   2.768   3.926   2.115
  109DOPC   C34 5866   2.657   3.966   2.181
  109DOPC   O35 5867   2.547   3.967   2.126
  109DOPC   C36 5868   2.677   4.007   2.327
  109DOPC   C37 5869   2.574   4.112   2.370
  109DOPC   C38 5870   2.597   4.161   2.513
  109DOPC   C39 5871   2.489   4.263   2.547
  109DOPC   C40 5872   2.499   4.317   2.689
  109DOPC   C41 5873   2.627   4.397   2.714
  109DOPC   C42 5874   2.619   4.460   2.853
  109DOPC   C43 5875   2.740   4.547   2.886
  109DOPC   C44 5876   2.741   4.617   3.006
  109DOPC   C45 5877   2.618   4.606   3.097
  109DOPC   C46 5878   2.634   4.687   3.225
  109DOPC   C47 5879   2.509   4.673   3.312
  109DOPC   C48 5880   2.485   4.525   3.345
  109DOPC   C49 5881   2.358   4.506   3.427
  109DOPC   C50 5882   2.338   4.358   3.459
  109DOPC   CA1 5883   2.212   4.335   3.542
  109DOPC   CA2 5884   2.195   4.187   3.576
  109DOPC   CA3 5885   3.897   2.445   2.629
  109DOPC   CA4 5886   3.956   2.316   2.687
  110DOPC    C1 5887   0.545   2.300   1.336
  110DOPC    C2 5888   0.541   2.422   1.540
  110DOPC    C3 5889   0.712   2.268   1.507
  110DOPC    N4 5890   0.570   2.290   1.481
  110DOPC    C5 5891   0.485   2.189   1.549
  110DOPC    C6 5892   0.502   2.041   1.508
  110DOPC    O7 5893   0.415   1.954   1.581
  110DOPC    P8 5894   0.418   1.811   1.519
  110DOPC    O9 5895   0.322   1.726   1.588
  110DOPC   O10 5896   0.414   1.831   1.373
  110DOPC   O11 5897   0.564   1.774   1.563
  110DOPC   C12 5898   0.561   1.703   1.687
  110DOPC   C13 5899   0.701   1.695   1.749
  110DOPC   O14 5900   0.714   1.605   1.864
  110DOPC   C15 5901   0.839   1.567   1.901
  110DOPC   O16 5902   0.931   1.581   1.821
  110DOPC   C17 5903   0.849   1.490   2.034
  110DOPC   C18 5904   0.911   1.350   2.025
  110DOPC   C19 5905   1.063   1.352   2.002
  110DOPC   C20 5906   1.123   1.211   2.002
  110DOPC   C21 5907   1.116   1.147   2.141
  110DOPC   C22 5908   1.202   1.226   2.240
  110DOPC   C23 5909   1.200   1.162   2.379
  110DOPC   C24 5910   1.251   1.018   2.376
  110DOPC   C25 5911   1.278   0.952   2.495
  110DOPC   C26 5912   1.257   1.026   2.628
  110DOPC   C27 5913   1.307   0.945   2.747
  110DOPC   C28 5914   1.231   0.813   2.762
  110DOPC   C29 5915   1.281   0.737   2.885
  110DOPC   C30 5916   1.203   0.607   2.907
  110DOPC   C31 5917   1.256   0.535   3.031
  110DOPC   C32 5918   0.737   1.843   1.774
  110DOPC   O33 5919   0.652   1.910   1.868
  110DOPC   C34 5920   0.678   2.042   1.882
  110DOPC   O35 5921   0.736   2.104   1.793
  110DOPC   C36 5922   0.630   2.107   2.011
  110DOPC   C37 5923   0.750   2.128   2.104
  110DOPC   C38 5924   0.711   2.161   2.248
  110DOPC   C39 5925   0.840   2.181   2.328
  110DOPC   C40 5926   0.817   2.173   2.479
  110DOPC   C41 5927   0.951   2.191   2.552
  110DOPC   C42 5928   0.940   2.160   2.701
  110DOPC   C43 5929   0.903   2.013   2.723
  110DOPC   C44 5930   0.895   1.962   2.852
  110DOPC   C45 5931   0.925   2.052   2.972
  110DOPC   C46 5932   0.911   1.975   3.103
  110DOPC   C47 5933   1.011   1.859   3.110
  110DOPC   C48 5934   0.997   1.784   3.243
  110DOPC   C49 5935   1.096   1.668   3.252
  110DOPC   C50 5936   1.081   1.595   3.385
  110DOPC   CA1 5937   1.181   1.479   3.397
  110DOPC   CA2 5938   1.166   1.407   3.531
  110DOPC   CA3 5939   1.243   0.623   3.155
  110DOPC   CA4 5940   1.294   0.552   3.281
  111DOPC    C1 5941   5.956   3.495   2.073
  111DOPC    C2 5942   5.846   3.289   2.102
  111DOPC    C3 5943   5.854   3.384   1.886
  111DOPC    N4 5944   5.931   3.365   2.010
  111DOPC    C5 5945   6.055   3.287   1.989
  111DOPC    C6 5946   6.151   3.334   1.877
  111DOPC    O7 5947   6.271   3.257   1.868
  111DOPC    P8 5948   6.344   3.298   1.735
  111DOPC    O9 5949   6.464   3.214   1.724
  111DOPC   O10 5950   6.237   3.296   1.634
  111DOPC   O11 5951   6.374   3.445   1.777
  111DOPC   C12 5952   6.500   3.463   1.841
  111DOPC   C13 5953   6.497   3.587   1.932
  111DOPC   O14 5954   0.041   3.653   1.968
  111DOPC   C15 5955   0.152   3.588   2.013
  111DOPC   O16 5956   0.201   3.496   1.948
  111DOPC   C17 5957   0.240   3.675   2.103
  111DOPC   C18 5958   0.196   3.669   2.250
  111DOPC   C19 5959   0.280   3.765   2.335
  111DOPC   C20 5960   0.247   3.750   2.484
  111DOPC   C21 5961   0.268   3.604   2.525
  111DOPC   C22 5962   0.269   3.582   2.676
  111DOPC   C23 5963   0.140   3.621   2.747
  111DOPC   C24 5964   0.150   3.574   2.892
  111DOPC   C25 5965   0.051   3.599   2.987
  111DOPC   C26 5966   6.508   3.681   2.956
  111DOPC   C27 5967   6.417   3.680   3.079
  111DOPC   C28 5968   6.494   3.730   3.201
  111DOPC   C29 5969   6.412   3.717   3.330
  111DOPC   C30 5970   6.497   3.760   3.451
  111DOPC   C31 5971   6.420   3.745   3.582
  111DOPC   C32 5972   6.405   3.547   2.049
  111DOPC   O33 5973   6.453   3.434   2.124
  111DOPC   C34 5974   6.368   3.386   2.218
  111DOPC   O35 5975   6.249   3.417   2.216
  111DOPC   C36 5976   6.427   3.286   2.318
  111DOPC   C37 5977   6.324   3.237   2.419
  111DOPC   C38 5978   6.390   3.168   2.539
  111DOPC   C39 5979   6.485   3.265   2.609
  111DOPC   C40 5980   6.544   3.205   2.737
  111DOPC   C41 5981   6.433   3.177   2.840
  111DOPC   C42 5982   6.492   3.126   2.971
  111DOPC   C43 5983   0.008   3.228   3.029
  111DOPC   C44 5984   0.082   3.197   3.143
  111DOPC   C45 5985   0.062   3.063   3.214
  111DOPC   C46 5986   0.188   3.021   3.289
  111DOPC   C47 5987   0.166   2.891   3.366
  111DOPC   C48 5988   0.299   2.823   3.396
  111DOPC   C49 5989   0.365   2.782   3.264
  111DOPC   C50 5990   0.497   2.709   3.286
  111DOPC   CA1 5991   0.555   2.662   3.153
  111DOPC   CA2 5992   0.459   2.568   3.081
  111DOPC   CA3 5993   6.295   3.832   3.584
  111DOPC   CA4 5994   6.222   3.820   3.718
  112DOPC    C1 5995   0.326   1.451   1.401
  112DOPC    C2 5996   0.094   1.490   1.431
  112DOPC    C3 5997   0.165   1.307   1.303
  112DOPC    N4 5998   0.196   1.386   1.423
  112DOPC    C5 5999   0.198   1.292   1.538
  112DOPC    C6 6000   0.232   1.342   1.681
  112DOPC    O7 6001   0.125   1.403   1.753
  112DOPC    P8 6002   0.161   1.398   1.906
  112DOPC    O9 6003   0.294   1.460   1.915
  112DOPC   O10 6004   0.041   1.459   1.965
  112DOPC   O11 6005   0.164   1.244   1.925
  112DOPC   C12 6006   0.044   1.197   1.985
  112DOPC   C13 6007   0.030   1.044   1.976
  112DOPC   O14 6008   6.483   0.993   2.024
  112DOPC   C15 6009   6.456   0.861   2.010
  112DOPC   O16 6010   6.510   0.797   1.919
  112DOPC   C17 6011   6.346   0.802   2.098
  112DOPC   C18 6012   6.390   0.782   2.243
  112DOPC   C19 6013   6.516   0.696   2.256
  112DOPC   C20 6014   6.560   0.681   2.402
  112DOPC   C21 6015   6.474   0.580   2.478
  112DOPC   C22 6016   6.511   0.580   2.627
  112DOPC   C23 6017   6.439   0.468   2.703
  112DOPC   C24 6018   6.489   0.331   2.656
  112DOPC   C25 6019   6.438   0.214   2.710
  112DOPC   C26 6020   6.327   0.217   2.815
  112DOPC   C27 6021   6.296   0.074   2.862
  112DOPC   C28 6022   6.172   0.068   2.950
  112DOPC   C29 6023   6.184   0.152   3.077
  112DOPC   C30 6024   6.057   0.134   3.162
  112DOPC   C31 6025   6.062   0.214   3.292
  112DOPC   C32 6026   0.154   0.989   2.050
  112DOPC   O33 6027   0.152   1.013   2.191
  112DOPC   C34 6028   0.253   0.960   2.263
  112DOPC   O35 6029   0.341   0.892   2.210
  112DOPC   C36 6030   0.240   0.980   2.414
  112DOPC   C37 6031   0.365   0.951   2.498
  112DOPC   C38 6032   0.482   1.046   2.470
  112DOPC   C39 6033   0.585   1.034   2.582
  112DOPC   C40 6034   0.715   1.110   2.553
  112DOPC   C41 6035   0.799   1.109   2.681
  112DOPC   C42 6036   0.811   0.965   2.731
  112DOPC   C43 6037   0.873   0.957   2.870
  112DOPC   C44 6038   0.858   0.837   2.939
  112DOPC   C45 6039   0.782   0.724   2.871
  112DOPC   C46 6040   0.753   0.605   2.963
  112DOPC   C47 6041   0.682   0.497   2.882
  112DOPC   C48 6042   0.556   0.554   2.817
  112DOPC   C49 6043   0.494   0.455   2.718
  112DOPC   C50 6044   0.372   0.515   2.649
  112DOPC   CA1 6045   0.318   0.421   2.541
  112DOPC   CA2 6046   0.279   0.286   2.601
  112DOPC   CA3 6047   6.062   0.365   3.267
  112DOPC   CA4 6048   5.933   0.411   3.199
  113DOPC    C1 6049   4.108   4.615   5.741
  113DOPC    C2 6050   3.910   4.500   5.668
  113DOPC    C3 6051   3.923   4.590   5.884
  113DOPC    N4 6052   4.001   4.522   5.781
  113DOPC    C5 6053   4.052   4.394   5.838
  113DOPC    C6 6054   4.163   4.315   5.762
  113DOPC    O7 6055   4.124   4.271   5.632
  113DOPC    P8 6056   4.239   4.184   5.571
  113DOPC    O9 6057   4.344   4.281   5.534
  113DOPC   O10 6058   4.266   4.076   5.668
  113DOPC   O11 6059   4.166   4.131   5.443
  113DOPC   C12 6060   4.145   4.240   5.354
  113DOPC   C13 6061   4.106   4.203   5.210
  113DOPC   O14 6062   3.965   4.176   5.182
  113DOPC   C15 6063   3.889   4.284   5.150
  113DOPC   O16 6064   3.927   4.397   5.182
  113DOPC   C17 6065   3.747   4.258   5.099
  113DOPC   C18 6066   3.730   4.296   4.952
  113DOPC   C19 6067   3.796   4.196   4.858
  113DOPC   C20 6068   3.730   4.058   4.871
  113DOPC   C21 6069   3.796   3.956   4.778
  113DOPC   C22 6070   3.943   3.937   4.812
  113DOPC   C23 6071   4.009   3.837   4.717
  113DOPC   C24 6072   4.157   3.819   4.750
  113DOPC   C25 6073   4.238   3.740   4.670
  113DOPC   C26 6074   4.179   3.671   4.546
  113DOPC   C27 6075   4.288   3.591   4.473
  113DOPC   C28 6076   4.233   3.523   4.348
  113DOPC   C29 6077   4.344   3.446   4.276
  113DOPC   C30 6078   4.293   3.376   4.151
  113DOPC   C31 6079   4.407   3.301   4.081
  113DOPC   C32 6080   4.207   4.097   5.163
  113DOPC   O33 6081   4.337   4.154   5.145
  113DOPC   C34 6082   4.433   4.074   5.093
  113DOPC   O35 6083   4.408   3.959   5.056
  113DOPC   C36 6084   4.568   4.141   5.069
  113DOPC   C37 6085   4.574   4.201   4.928
  113DOPC   C38 6086   4.700   4.285   4.907
  113DOPC   C39 6087   4.704   4.342   4.765
  113DOPC   C40 6088   4.823   4.437   4.747
  113DOPC   C41 6089   4.831   4.492   4.605
  113DOPC   C42 6090   4.852   4.379   4.504
  113DOPC   C43 6091   4.860   4.433   4.361
  113DOPC   C44 6092   4.883   4.345   4.256
  113DOPC   C45 6093   4.902   4.196   4.285
  113DOPC   C46 6094   4.923   4.116   4.156
  113DOPC   C47 6095   4.801   4.129   4.065
  113DOPC   C48 6096   4.818   4.042   3.940
  113DOPC   C49 6097   4.693   4.048   3.852
  113DOPC   C50 6098   4.706   3.953   3.732
  113DOPC   CA1 6099   4.578   3.953   3.649
  113DOPC   CA2 6100   4.588   3.852   3.534
  113DOPC   CA3 6101   4.357   3.232   3.954
  113DOPC   CA4 6102   4.471   3.156   3.884
  114DOPC    C1 6103   1.977   4.167   5.924
  114DOPC    C2 6104   1.991   4.310   5.737
  114DOPC    C3 6105   2.011   4.398   5.959
  114DOPC    N4 6106   2.045   4.286   5.871
  114DOPC    C5 6107   2.190   4.255   5.864
  114DOPC    C6 6108   2.287   4.363   5.811
  114DOPC    O7 6109   2.327   4.458   5.911
  114DOPC    P8 6110   2.395   4.579   5.839
  114DOPC    O9 6111   2.320   4.604   5.715
  114DOPC   O10 6112   2.432   4.686   5.933
  114DOPC   O11 6113   2.527   4.504   5.804
  114DOPC   C12 6114   2.588   4.570   5.695
  114DOPC   C13 6115   2.731   4.519   5.672
  114DOPC   O14 6116   2.819   4.608   5.597
  114DOPC   C15 6117   2.859   4.726   5.651
  114DOPC   O16 6118   2.834   4.753   5.769
  114DOPC   C17 6119   2.939   4.821   5.561
  114DOPC   C18 6120   3.064   4.752   5.506
  114DOPC   C19 6121   3.150   4.849   5.424
  114DOPC   C20 6122   3.073   4.905   5.305
  114DOPC   C21 6123   3.166   4.989   5.216
  114DOPC   C22 6124   3.093   5.036   5.090
  114DOPC   C23 6125   3.192   5.098   4.991
  114DOPC   C24 6126   3.261   5.222   5.049
  114DOPC   C25 6127   3.364   5.287   4.980
  114DOPC   C26 6128   3.414   5.241   4.842
  114DOPC   C27 6129   3.324   5.287   4.727
  114DOPC   C28 6130   3.377   5.232   4.594
  114DOPC   C29 6131   3.286   5.269   4.477
  114DOPC   C30 6132   3.277   5.420   4.456
  114DOPC   C31 6133   3.185   5.453   4.338
  114DOPC   C32 6134   2.711   4.376   5.620
  114DOPC   O33 6135   2.626   4.367   5.505
  114DOPC   C34 6136   2.591   4.240   5.473
  114DOPC   O35 6137   2.589   4.153   5.560
  114DOPC   C36 6138   2.523   4.223   5.337
  114DOPC   C37 6139   2.622   4.177   5.229
  114DOPC   C38 6140   2.551   4.156   5.095
  114DOPC   C39 6141   2.651   4.104   4.991
  114DOPC   C40 6142   2.766   4.203   4.971
  114DOPC   C41 6143   2.874   4.144   4.881
  114DOPC   C42 6144   2.821   4.108   4.742
  114DOPC   C43 6145   2.931   4.046   4.657
  114DOPC   C44 6146   2.905   4.007   4.526
  114DOPC   C45 6147   2.766   4.027   4.467
  114DOPC   C46 6148   2.763   3.983   4.321
  114DOPC   C47 6149   2.623   4.002   4.260
  114DOPC   C48 6150   2.621   3.959   4.114
  114DOPC   C49 6151   2.481   3.975   4.054
  114DOPC   C50 6152   2.479   3.930   3.908
  114DOPC   CA1 6153   2.338   3.942   3.850
  114DOPC   CA2 6154   2.239   3.856   3.928
  114DOPC   CA3 6155   3.178   5.604   4.314
  114DOPC   CA4 6156   3.316   5.660   4.278
  115DOPC    C1 6157   6.140   3.439   5.136
  115DOPC    C2 6158   6.333   3.460   5.002
  115DOPC    C3 6159   6.144   3.593   4.954
  115DOPC    N4 6160   6.224   3.536   5.064
  115DOPC    C5 6161   6.281   3.639   5.154
  115DOPC    C6 6162   6.191   3.756   5.203
  115DOPC    O7 6163   6.080   3.715   5.281
  115DOPC    P8 6164   5.983   3.837   5.297
  115DOPC    O9 6165   5.875   3.803   5.393
  115DOPC   O10 6166   6.065   3.957   5.312
  115DOPC   O11 6167   5.932   3.830   5.149
  115DOPC   C12 6168   5.802   3.774   5.143
  115DOPC   C13 6169   5.766   3.723   5.003
  115DOPC   O14 6170   5.800   3.583   4.978
  115DOPC   C15 6171   5.706   3.490   5.012
  115DOPC   O16 6172   5.606   3.524   5.075
  115DOPC   C17 6173   5.737   3.344   4.977
  115DOPC   C18 6174   5.854   3.333   4.878
  115DOPC   C19 6175   5.888   3.189   4.843
  115DOPC   C20 6176   6.016   3.184   4.760
  115DOPC   C21 6177   6.054   3.040   4.723
  115DOPC   C22 6178   6.188   3.037   4.650
  115DOPC   C23 6179   6.184   3.121   4.522
  115DOPC   C24 6180   6.321   3.125   4.455
  115DOPC   C25 6181   6.341   3.198   4.339
  115DOPC   C26 6182   6.224   3.272   4.274
  115DOPC   C27 6183   6.273   3.366   4.163
  115DOPC   C28 6184   6.155   3.439   4.097
  115DOPC   C29 6185   6.076   3.521   4.200
  115DOPC   C30 6186   6.160   3.632   4.263
  115DOPC   C31 6187   6.081   3.700   4.375
  115DOPC   C32 6188   5.826   3.822   4.902
  115DOPC   O33 6189   5.740   3.929   4.861
  115DOPC   C34 6190   5.789   4.002   4.760
  115DOPC   O35 6191   5.906   3.988   4.723
  115DOPC   C36 6192   5.692   4.100   4.693
  115DOPC   C37 6193   5.606   4.031   4.586
  115DOPC   C38 6194   5.691   3.972   4.473
  115DOPC   C39 6195   5.604   3.905   4.366
  115DOPC   C40 6196   5.694   3.840   4.260
  115DOPC   C41 6197   5.611   3.779   4.146
  115DOPC   C42 6198   5.703   3.711   4.044
  115DOPC   C43 6199   5.623   3.660   3.924
  115DOPC   C44 6200   5.688   3.592   3.822
  115DOPC   C45 6201   5.839   3.565   3.832
  115DOPC   C46 6202   5.892   3.498   3.705
  115DOPC   C47 6203   6.040   3.463   3.721
  115DOPC   C48 6204   6.096   3.401   3.593
  115DOPC   C49 6205   6.241   3.357   3.612
  115DOPC   C50 6206   6.296   3.294   3.484
  115DOPC   CA1 6207   6.437   3.239   3.507
  115DOPC   CA2 6208   6.437   3.132   3.616
  115DOPC   CA3 6209   6.045   3.597   4.483
  115DOPC   CA4 6210   5.962   3.660   4.594
  116DOPC    C1 6211   0.944   5.254   5.263
  116DOPC    C2 6212   0.821   5.105   5.395
  116DOPC    C3 6213   0.880   5.321   5.481
  116DOPC    N4 6214   0.835   5.247   5.362
  116DOPC    C5 6215   0.716   5.309   5.299
  116DOPC    C6 6216   0.580   5.313   5.374
  116DOPC    O7 6217   0.495   5.411   5.315
  116DOPC    P8 6218   0.352   5.415   5.379
  116DOPC    O9 6219   0.360   5.363   5.516
  116DOPC   O10 6220   0.290   5.546   5.350
  116DOPC   O11 6221   0.297   5.305   5.283
  116DOPC   C12 6222   0.237   5.371   5.172
  116DOPC   C13 6223   0.241   5.293   5.039
  116DOPC   O14 6224   0.159   5.173   5.028
  116DOPC   C15 6225   0.024   5.182   5.026
  116DOPC   O16 6226   6.548   5.287   5.056
  116DOPC   C17 6227   6.532   5.057   4.980
  116DOPC   C18 6228   6.521   4.947   5.086
  116DOPC   C19 6229   6.470   4.821   5.017
  116DOPC   C20 6230   6.569   4.783   4.907
  116DOPC   C21 6231   6.522   4.665   4.822
  116DOPC   C22 6232   0.049   4.628   4.720
  116DOPC   C23 6233   0.085   4.747   4.630
  116DOPC   C24 6234   0.198   4.710   4.534
  116DOPC   C25 6235   0.243   4.801   4.438
  116DOPC   C26 6236   0.181   4.940   4.428
  116DOPC   C27 6237   0.234   5.015   4.306
  116DOPC   C28 6238   0.386   5.033   4.309
  116DOPC   C29 6239   0.432   5.109   4.185
  116DOPC   C30 6240   0.584   5.133   4.184
  116DOPC   C31 6241   0.624   5.211   4.059
  116DOPC   C32 6242   0.390   5.271   5.011
  116DOPC   O33 6243   0.458   5.390   4.970
  116DOPC   C34 6244   0.591   5.377   4.951
  116DOPC   O35 6245   0.648   5.269   4.969
  116DOPC   C36 6246   0.671   5.502   4.912
  116DOPC   C37 6247   0.607   5.581   4.798
  116DOPC   C38 6248   0.687   5.709   4.775
  116DOPC   C39 6249   0.624   5.796   4.666
  116DOPC   C40 6250   0.710   5.920   4.642
  116DOPC   C41 6251   0.649   6.009   4.533
  116DOPC   C42 6252   0.738   6.131   4.509
  116DOPC   C43 6253   0.678   6.222   4.402
  116DOPC   C44 6254   0.745   6.338   4.364
  116DOPC   C45 6255   0.880   6.372   4.427
  116DOPC   C46 6256   0.929   0.033   4.378
  116DOPC   C47 6257   1.064   0.070   4.439
  116DOPC   C48 6258   1.105   0.209   4.394
  116DOPC   C49 6259   1.241   0.250   4.451
  116DOPC   C50 6260   1.275   0.393   4.409
  116DOPC   CA1 6261   1.276   0.407   4.256
  116DOPC   CA2 6262   1.307   0.550   4.214
  116DOPC   CA3 6263   0.774   5.243   4.057
  116DOPC   CA4 6264   0.858   5.115   4.059
  117DOPC    C1 6265   3.742   5.349   5.770
  117DOPC    C2 6266   3.636   5.140   5.816
  117DOPC    C3 6267   3.548   5.339   5.905
  117DOPC    N4 6268   3.673   5.270   5.873
  117DOPC    C5 6269   3.755   5.261   5.997
  117DOPC    C6 6270   3.867   5.154   6.007
  117DOPC    O7 6271   3.972   5.169   5.911
  117DOPC    P8 6272   4.037   5.027   5.899
  117DOPC    O9 6273   4.120   5.002   6.018
  117DOPC   O10 6274   3.929   4.937   5.857
  117DOPC   O11 6275   4.128   5.057   5.777
  117DOPC   C12 6276   4.047   5.070   5.661
  117DOPC   C13 6277   4.123   5.135   5.544
  117DOPC   O14 6278   4.038   5.180   5.435
  117DOPC   C15 6279   3.972   5.297   5.447
  117DOPC   O16 6280   4.001   5.375   5.538
  117DOPC   C17 6281   3.882   5.334   5.329
  117DOPC   C18 6282   3.910   5.476   5.280
  117DOPC   C19 6283   3.846   5.500   5.143
  117DOPC   C20 6284   3.875   5.641   5.094
  117DOPC   C21 6285   3.830   5.656   4.949
  117DOPC   C22 6286   3.855   5.798   4.898
  117DOPC   C23 6287   3.827   5.806   4.748
  117DOPC   C24 6288   3.683   5.762   4.717
  117DOPC   C25 6289   3.643   5.756   4.584
  117DOPC   C26 6290   3.743   5.792   4.475
  117DOPC   C27 6291   3.678   5.788   4.336
  117DOPC   C28 6292   3.779   5.828   4.229
  117DOPC   C29 6293   3.713   5.835   4.091
  117DOPC   C30 6294   3.656   5.700   4.049
  117DOPC   C31 6295   3.587   5.712   3.913
  117DOPC   C32 6296   4.239   5.041   5.508
  117DOPC   O33 6297   4.205   4.911   5.457
  117DOPC   C34 6298   4.313   4.832   5.439
  117DOPC   O35 6299   4.416   4.853   5.503
  117DOPC   C36 6300   4.294   4.709   5.350
  117DOPC   C37 6301   4.220   4.745   5.221
  117DOPC   C38 6302   4.200   4.623   5.130
  117DOPC   C39 6303   4.120   4.665   5.007
  117DOPC   C40 6304   4.093   4.548   4.913
  117DOPC   C41 6305   4.221   4.488   4.855
  117DOPC   C42 6306   4.187   4.381   4.752
  117DOPC   C43 6307   4.312   4.323   4.686
  117DOPC   C44 6308   4.299   4.230   4.584
  117DOPC   C45 6309   4.159   4.190   4.538
  117DOPC   C46 6310   4.163   4.089   4.423
  117DOPC   C47 6311   4.021   4.053   4.380
  117DOPC   C48 6312   4.021   3.954   4.263
  117DOPC   C49 6313   3.877   3.922   4.222
  117DOPC   C50 6314   3.872   3.823   4.105
  117DOPC   CA1 6315   3.728   3.794   4.065
  117DOPC   CA2 6316   3.721   3.695   3.949
  117DOPC   CA3 6317   3.686   5.761   3.807
  117DOPC   CA4 6318   3.616   5.778   3.671
  118DOPC    C1 6319   5.046   2.858   5.093
  118DOPC    C2 6320   4.978   2.758   5.296
  118DOPC    C3 6321   4.866   2.954   5.214
  118DOPC    N4 6322   4.996   2.888   5.228
  118DOPC    C5 6323   5.099   2.971   5.295
  118DOPC    C6 6324   5.062   3.044   5.427
  118DOPC    O7 6325   5.174   3.115   5.480
  118DOPC    P8 6326   5.124   3.224   5.583
  118DOPC    O9 6327   5.015   3.162   5.659
  118DOPC   O10 6328   5.243   3.278   5.651
  118DOPC   O11 6329   5.075   3.325   5.475
  118DOPC   C12 6330   5.183   3.399   5.418
  118DOPC   C13 6331   5.143   3.483   5.295
  118DOPC   O14 6332   5.094   3.617   5.327
  118DOPC   C15 6333   5.185   3.717   5.323
  118DOPC   O16 6334   5.305   3.694   5.305
  118DOPC   C17 6335   5.128   3.858   5.338
  118DOPC   C18 6336   5.098   3.919   5.201
  118DOPC   C19 6337   5.010   4.043   5.215
  118DOPC   C20 6338   5.074   4.146   5.307
  118DOPC   C21 6339   4.983   4.268   5.323
  118DOPC   C22 6340   4.965   4.342   5.191
  118DOPC   C23 6341   5.095   4.409   5.145
  118DOPC   C24 6342   5.073   4.483   5.013
  118DOPC   C25 6343   5.177   4.553   4.954
  118DOPC   C26 6344   5.314   4.561   5.022
  118DOPC   C27 6345   5.419   4.615   4.924
  118DOPC   C28 6346   5.433   4.518   4.806
  118DOPC   C29 6347   5.534   4.569   4.703
  118DOPC   C30 6348   5.550   4.469   4.589
  118DOPC   C31 6349   5.416   4.440   4.522
  118DOPC   C32 6350   5.050   3.393   5.213
  118DOPC   O33 6351   5.053   3.416   5.072
  118DOPC   C34 6352   4.988   3.325   4.996
  118DOPC   O35 6353   4.952   3.218   5.044
  118DOPC   C36 6354   4.995   3.349   4.845
  118DOPC   C37 6355   4.859   3.386   4.785
  118DOPC   C38 6356   4.866   3.385   4.632
  118DOPC   C39 6357   4.728   3.408   4.570
  118DOPC   C40 6358   4.736   3.392   4.418
  118DOPC   C41 6359   4.788   3.252   4.383
  118DOPC   C42 6360   4.804   3.233   4.232
  118DOPC   C43 6361   4.865   3.095   4.203
  118DOPC   C44 6362   4.895   3.058   4.073
  118DOPC   C45 6363   4.865   3.152   3.956
  118DOPC   C46 6364   4.920   3.098   3.825
  118DOPC   C47 6365   4.880   3.189   3.708
  118DOPC   C48 6366   4.945   3.145   3.577
  118DOPC   C49 6367   4.899   3.234   3.462
  118DOPC   C50 6368   4.968   3.196   3.331
  118DOPC   CA1 6369   5.120   3.211   3.345
  118DOPC   CA2 6370   5.191   3.178   3.213
  118DOPC   CA3 6371   5.433   4.339   4.409
  118DOPC   CA4 6372   5.297   4.304   4.346
  119DOPC    C1 6373   4.588   6.422   5.296
  119DOPC    C2 6374   4.784   6.465   5.421
  119DOPC    C3 6375   4.644   0.169   5.366
  119DOPC    N4 6376   4.643   0.028   5.406
  119DOPC    C5 6377   4.578   0.008   5.537
  119DOPC    C6 6378   4.423   6.472   5.545
  119DOPC    O7 6379   4.355   0.105   5.482
  119DOPC    P8 6380   4.200   0.094   5.500
  119DOPC    O9 6381   4.172   0.022   5.625
  119DOPC   O10 6382   4.142   0.226   5.470
  119DOPC   O11 6383   4.178   6.469   5.382
  119DOPC   C12 6384   4.191   0.065   5.260
  119DOPC   C13 6385   4.108   0.007   5.144
  119DOPC   O14 6386   3.966   0.043   5.144
  119DOPC   C15 6387   3.930   0.164   5.095
  119DOPC   O16 6388   4.015   0.251   5.075
  119DOPC   C17 6389   3.779   0.187   5.077
  119DOPC   C18 6390   3.743   0.325   5.023
  119DOPC   C19 6391   3.591   0.337   5.010
  119DOPC   C20 6392   3.547   0.475   4.961
  119DOPC   C21 6393   3.602   0.506   4.822
  119DOPC   C22 6394   3.555   0.644   4.777
  119DOPC   C23 6395   3.609   0.680   4.638
  119DOPC   C24 6396   3.561   0.582   4.531
  119DOPC   C25 6397   3.588   0.609   4.398
  119DOPC   C26 6398   3.666   0.735   4.362
  119DOPC   C27 6399   3.664   0.764   4.211
  119DOPC   C28 6400   3.733   0.655   4.129
  119DOPC   C29 6401   3.881   0.642   4.165
  119DOPC   C30 6402   3.951   0.545   4.069
  119DOPC   C31 6403   3.944   0.599   3.925
  119DOPC   C32 6404   4.132   6.331   5.143
  119DOPC   O33 6405   4.264   6.290   5.103
  119DOPC   C34 6406   4.279   6.156   5.091
  119DOPC   O35 6407   4.192   6.080   5.135
  119DOPC   C36 6408   4.414   6.105   5.041
  119DOPC   C37 6409   4.469   6.190   4.927
  119DOPC   C38 6410   4.607   6.140   4.884
  119DOPC   C39 6411   4.665   6.226   4.771
  119DOPC   C40 6412   4.805   6.178   4.733
  119DOPC   C41 6413   4.866   6.265   4.623
  119DOPC   C42 6414   4.786   6.259   4.493
  119DOPC   C43 6415   4.858   6.337   4.383
  119DOPC   C44 6416   4.811   6.338   4.252
  119DOPC   C45 6417   4.682   6.264   4.214
  119DOPC   C46 6418   4.664   6.264   4.062
  119DOPC   C47 6419   4.531   6.201   4.021
  119DOPC   C48 6420   4.414   6.281   4.077
  119DOPC   C49 6421   4.280   6.227   4.030
  119DOPC   C50 6422   4.165   6.313   4.082
  119DOPC   CA1 6423   4.030   6.260   4.036
  119DOPC   CA2 6424   4.008   6.117   4.085
  119DOPC   CA3 6425   4.009   0.502   3.826
  119DOPC   CA4 6426   3.936   0.367   3.826
  120DOPC    C1 6427   1.999   0.656   5.639
  120DOPC    C2 6428   1.894   0.455   5.707
  120DOPC    C3 6429   1.779   0.662   5.723
  120DOPC    N4 6430   1.910   0.597   5.740
  120DOPC    C5 6431   1.953   0.620   5.880
  120DOPC    C6 6432   2.080   0.549   5.934
  120DOPC    O7 6433   2.198   0.582   5.861
  120DOPC    P8 6434   2.328   0.531   5.933
  120DOPC    O9 6435   2.394   0.648   5.993
  120DOPC   O10 6436   2.289   0.416   6.017
  120DOPC   O11 6437   2.414   0.483   5.812
  120DOPC   C12 6438   2.384   0.553   5.692
  120DOPC   C13 6439   2.506   0.583   5.604
  120DOPC   O14 6440   2.474   0.656   5.481
  120DOPC   C15 6441   2.578   0.711   5.412
  120DOPC   O16 6442   2.686   0.726   5.467
  120DOPC   C17 6443   2.544   0.768   5.274
  120DOPC   C18 6444   2.594   0.911   5.254
  120DOPC   C19 6445   2.549   0.962   5.117
  120DOPC   C20 6446   2.601   1.103   5.089
  120DOPC   C21 6447   2.554   1.151   4.951
  120DOPC   C22 6448   2.613   1.287   4.916
  120DOPC   C23 6449   2.564   1.333   4.778
  120DOPC   C24 6450   2.627   1.467   4.740
  120DOPC   C25 6451   2.593   1.530   4.621
  120DOPC   C26 6452   2.491   1.467   4.525
  120DOPC   C27 6453   2.467   1.560   4.406
  120DOPC   C28 6454   2.361   1.505   4.311
  120DOPC   C29 6455   2.336   1.604   4.197
  120DOPC   C30 6456   2.225   1.557   4.103
  120DOPC   C31 6457   2.197   1.664   3.997
  120DOPC   C32 6458   2.576   0.447   5.585
  120DOPC   O33 6459   2.499   0.339   5.528
  120DOPC   C34 6460   2.568   0.224   5.516
  120DOPC   O35 6461   2.686   0.218   5.550
  120DOPC   C36 6462   2.493   0.101   5.463
  120DOPC   C37 6463   2.573   0.027   5.356
  120DOPC   C38 6464   2.517   6.363   5.330
  120DOPC   C39 6465   2.373   6.366   5.278
  120DOPC   C40 6466   2.364   6.429   5.139
  120DOPC   C41 6467   2.220   6.427   5.088
  120DOPC   C42 6468   2.209   0.011   4.947
  120DOPC   C43 6469   2.064   0.009   4.899
  120DOPC   C44 6470   2.032   0.055   4.772
  120DOPC   C45 6471   2.143   0.105   4.679
  120DOPC   C46 6472   2.084   0.163   4.550
  120DOPC   C47 6473   2.195   0.221   4.463
  120DOPC   C48 6474   2.139   0.287   4.337
  120DOPC   C49 6475   2.251   0.347   4.253
  120DOPC   C50 6476   2.330   0.451   4.334
  120DOPC   CA1 6477   2.444   0.510   4.252
  120DOPC   CA2 6478   2.525   0.611   4.334
  120DOPC   CA3 6479   2.081   1.623   3.907
  120DOPC   CA4 6480   2.052   1.731   3.802
  121DOPC    C1 6481   5.260   5.411   5.554
  121DOPC    C2 6482   5.231   5.391   5.786
  121DOPC    C3 6483   5.341   5.219   5.660
  121DOPC    N4 6484   5.230   5.316   5.660
  121DOPC    C5 6485   5.097   5.255   5.632
  121DOPC    C6 6486   5.042   5.148   5.730
  121DOPC    O7 6487   5.104   5.021   5.716
  121DOPC    P8 6488   5.052   4.920   5.823
  121DOPC    O9 6489   5.137   4.801   5.817
  121DOPC   O10 6490   5.035   4.994   5.949
  121DOPC   O11 6491   4.913   4.886   5.758
  121DOPC   C12 6492   4.937   4.819   5.634
  121DOPC   C13 6493   4.808   4.771   5.566
  121DOPC   O14 6494   4.830   4.702   5.438
  121DOPC   C15 6495   4.725   4.633   5.387
  121DOPC   O16 6496   4.642   4.578   5.459
  121DOPC   C17 6497   4.726   4.610   5.235
  121DOPC   C18 6498   4.656   4.724   5.163
  121DOPC   C19 6499   4.628   4.688   5.017
  121DOPC   C20 6500   4.557   4.801   4.944
  121DOPC   C21 6501   4.514   4.756   4.804
  121DOPC   C22 6502   4.444   4.869   4.728
  121DOPC   C23 6503   4.387   4.818   4.596
  121DOPC   C24 6504   4.322   4.931   4.516
  121DOPC   C25 6505   4.250   4.903   4.401
  121DOPC   C26 6506   4.231   4.757   4.356
  121DOPC   C27 6507   4.149   4.751   4.227
  121DOPC   C28 6508   4.120   4.606   4.187
  121DOPC   C29 6509   4.249   4.527   4.165
  121DOPC   C30 6510   4.220   4.384   4.122
  121DOPC   C31 6511   4.350   4.306   4.098
  121DOPC   C32 6512   4.721   4.899   5.554
  121DOPC   O33 6513   4.774   5.000   5.467
  121DOPC   C34 6514   4.696   5.108   5.445
  121DOPC   O35 6515   4.597   5.133   5.514
  121DOPC   C36 6516   4.740   5.199   5.331
  121DOPC   C37 6517   4.668   5.163   5.201
  121DOPC   C38 6518   4.714   5.252   5.086
  121DOPC   C39 6519   4.642   5.220   4.955
  121DOPC   C40 6520   4.700   5.304   4.842
  121DOPC   C41 6521   4.629   5.277   4.709
  121DOPC   C42 6522   4.696   5.353   4.595
  121DOPC   C43 6523   4.625   5.328   4.462
  121DOPC   C44 6524   4.678   5.379   4.344
  121DOPC   C45 6525   4.808   5.459   4.346
  121DOPC   C46 6526   4.841   5.513   4.206
  121DOPC   C47 6527   4.969   5.596   4.207
  121DOPC   C48 6528   4.996   5.657   4.069
  121DOPC   C49 6529   5.125   5.739   4.068
  121DOPC   C50 6530   5.117   5.857   4.166
  121DOPC   CA1 6531   5.245   5.940   4.163
  121DOPC   CA2 6532   5.237   6.058   4.259
  121DOPC   CA3 6533   4.321   4.162   4.054
  121DOPC   CA4 6534   4.240   4.159   3.924
  122DOPC    C1 6535   3.276   5.690   6.143
  122DOPC    C2 6536   3.097   5.675   6.297
  122DOPC    C3 6537   3.049   5.651   6.070
  122DOPC    N4 6538   3.135   5.724   6.165
  122DOPC    C5 6539   3.109   5.870   6.163
  122DOPC    C6 6540   3.115   5.947   6.028
  122DOPC    O7 6541   3.246   5.967   5.974
  122DOPC    P8 6542   3.231   6.073   5.859
  122DOPC    O9 6543   3.118   6.162   5.890
  122DOPC   O10 6544   3.365   6.126   5.833
  122DOPC   O11 6545   3.190   5.972   5.747
  122DOPC   C12 6546   3.306   5.915   5.689
  122DOPC   C13 6547   3.272   5.819   5.574
  122DOPC   O14 6548   3.391   5.774   5.502
  122DOPC   C15 6549   3.431   5.646   5.519
  122DOPC   O16 6550   3.413   5.590   5.628
  122DOPC   C17 6551   3.529   5.590   5.415
  122DOPC   C18 6552   3.460   5.559   5.282
  122DOPC   C19 6553   3.438   5.686   5.199
  122DOPC   C20 6554   3.359   5.660   5.071
  122DOPC   C21 6555   3.352   5.789   4.989
  122DOPC   C22 6556   3.276   5.770   4.858
  122DOPC   C23 6557   3.294   5.895   4.772
  122DOPC   C24 6558   3.227   5.882   4.636
  122DOPC   C25 6559   3.273   5.963   4.533
  122DOPC   C26 6560   3.387   6.060   4.562
  122DOPC   C27 6561   3.456   6.107   4.434
  122DOPC   C28 6562   3.362   6.185   4.342
  122DOPC   C29 6563   3.435   6.218   4.212
  122DOPC   C30 6564   3.352   6.309   4.122
  122DOPC   C31 6565   3.425   6.336   3.990
  122DOPC   C32 6566   3.169   5.895   5.489
  122DOPC   O33 6567   3.112   5.825   5.377
  122DOPC   C34 6568   3.019   5.894   5.309
  122DOPC   O35 6569   2.970   5.997   5.356
  122DOPC   C36 6570   2.968   5.831   5.180
  122DOPC   C37 6571   2.932   5.939   5.077
  122DOPC   C38 6572   2.885   5.879   4.944
  122DOPC   C39 6573   2.851   5.991   4.846
  122DOPC   C40 6574   2.815   5.936   4.708
  122DOPC   C41 6575   2.789   6.053   4.612
  122DOPC   C42 6576   2.910   6.146   4.614
  122DOPC   C43 6577   2.896   6.264   4.518
  122DOPC   C44 6578   2.992   6.364   4.526
  122DOPC   C45 6579   3.099   6.353   4.635
  122DOPC   C46 6580   3.203   6.465   4.627
  122DOPC   C47 6581   3.303   6.451   4.742
  122DOPC   C48 6582   3.414   0.081   4.731
  122DOPC   C49 6583   3.491   0.063   4.600
  122DOPC   C50 6584   3.605   0.165   4.590
  122DOPC   CA1 6585   3.684   0.146   4.460
  122DOPC   CA2 6586   3.798   0.247   4.450
  122DOPC   CA3 6587   3.561   6.403   4.012
  122DOPC   CA4 6588   3.546   0.067   4.074
  123DOPC    C1 6589   4.366   5.355   6.235
  123DOPC    C2 6590   4.389   5.209   6.051
  123DOPC    C3 6591   4.578   5.272   6.182
  123DOPC    N4 6592   4.453   5.320   6.123
  123DOPC    C5 6593   4.470   5.440   6.038
  123DOPC    C6 6594   4.563   5.434   5.914
  123DOPC    O7 6595   4.701   5.452   5.943
  123DOPC    P8 6596   4.786   5.432   5.813
  123DOPC    O9 6597   4.921   5.480   5.841
  123DOPC   O10 6598   4.759   5.297   5.761
  123DOPC   O11 6599   4.723   5.538   5.716
  123DOPC   C12 6600   4.700   5.484   5.587
  123DOPC   C13 6601   4.666   5.594   5.485
  123DOPC   O14 6602   4.578   5.552   5.376
  123DOPC   C15 6603   4.445   5.545   5.398
  123DOPC   O16 6604   4.398   5.576   5.508
  123DOPC   C17 6605   4.359   5.505   5.279
  123DOPC   C18 6606   4.338   5.354   5.271
  123DOPC   C19 6607   4.272   5.317   5.138
  123DOPC   C20 6608   4.245   5.167   5.127
  123DOPC   C21 6609   4.186   5.134   4.990
  123DOPC   C22 6610   4.059   5.214   4.965
  123DOPC   C23 6611   4.001   5.184   4.827
  123DOPC   C24 6612   3.876   5.268   4.800
  123DOPC   C25 6613   3.806   5.253   4.681
  123DOPC   C26 6614   3.855   5.150   4.578
  123DOPC   C27 6615   3.763   5.145   4.456
  123DOPC   C28 6616   3.811   5.038   4.357
  123DOPC   C29 6617   3.721   5.032   4.235
  123DOPC   C30 6618   3.768   4.923   4.138
  123DOPC   C31 6619   3.678   4.917   4.015
  123DOPC   C32 6620   4.799   5.658   5.445
  123DOPC   O33 6621   4.894   5.567   5.386
  123DOPC   C34 6622   5.003   5.628   5.333
  123DOPC   O35 6623   5.033   5.742   5.368
  123DOPC   C36 6624   5.095   5.544   5.243
  123DOPC   C37 6625   5.022   5.426   5.178
  123DOPC   C38 6626   5.101   5.363   5.063
  123DOPC   C39 6627   5.121   5.463   4.950
  123DOPC   C40 6628   5.178   5.397   4.824
  123DOPC   C41 6629   5.187   5.499   4.710
  123DOPC   C42 6630   5.227   5.433   4.578
  123DOPC   C43 6631   5.365   5.368   4.584
  123DOPC   C44 6632   5.414   5.302   4.472
  123DOPC   C45 6633   5.330   5.294   4.345
  123DOPC   C46 6634   5.402   5.217   4.234
  123DOPC   C47 6635   5.318   5.214   4.107
  123DOPC   C48 6636   5.288   5.357   4.061
  123DOPC   C49 6637   5.203   5.362   3.934
  123DOPC   C50 6638   5.275   5.302   3.813
  123DOPC   CA1 6639   5.188   5.318   3.688
  123DOPC   CA2 6640   5.259   5.264   3.564
  123DOPC   CA3 6641   3.725   4.808   3.917
  123DOPC   CA4 6642   3.636   4.804   3.793
  124DOPC    C1 6643   3.463   0.504   5.679
  124DOPC    C2 6644   3.309   0.683   5.721
  124DOPC    C3 6645   3.470   0.625   5.883
  124DOPC    N4 6646   3.380   0.569   5.782
  124DOPC    C5 6647   3.294   0.470   5.851
  124DOPC    C6 6648   3.170   0.412   5.779
  124DOPC    O7 6649   3.056   0.497   5.786
  124DOPC    P8 6650   2.929   0.414   5.746
  124DOPC    O9 6651   2.941   0.289   5.823
  124DOPC   O10 6652   2.817   0.507   5.764
  124DOPC   O11 6653   2.960   0.397   5.594
  124DOPC   C12 6654   2.931   0.520   5.527
  124DOPC   C13 6655   2.964   0.516   5.377
  124DOPC   O14 6656   2.939   0.641   5.305
  124DOPC   C15 6657   3.010   0.753   5.334
  124DOPC   O16 6658   3.097   0.754   5.421
  124DOPC   C17 6659   2.988   0.872   5.240
  124DOPC   C18 6660   3.093   0.869   5.128
  124DOPC   C19 6661   3.092   0.996   5.044
  124DOPC   C20 6662   3.204   0.990   4.940
  124DOPC   C21 6663   3.213   1.118   4.857
  124DOPC   C22 6664   3.081   1.148   4.786
  124DOPC   C23 6665   3.100   1.252   4.675
  124DOPC   C24 6666   2.968   1.277   4.602
  124DOPC   C25 6667   2.969   1.336   4.476
  124DOPC   C26 6668   3.101   1.373   4.409
  124DOPC   C27 6669   3.075   1.423   4.266
  124DOPC   C28 6670   3.204   1.462   4.194
  124DOPC   C29 6671   3.170   1.505   4.050
  124DOPC   C30 6672   3.294   1.549   3.972
  124DOPC   C31 6673   3.256   1.590   3.830
  124DOPC   C32 6674   2.884   0.396   5.323
  124DOPC   O33 6675   2.903   0.363   5.184
  124DOPC   C34 6676   3.027   0.326   5.145
  124DOPC   O35 6677   3.112   0.295   5.229
  124DOPC   C36 6678   3.051   0.309   4.995
  124DOPC   C37 6679   3.111   0.436   4.934
  124DOPC   C38 6680   3.148   0.416   4.787
  124DOPC   C39 6681   3.027   0.377   4.702
  124DOPC   C40 6682   3.065   0.365   4.555
  124DOPC   C41 6683   2.942   0.328   4.471
  124DOPC   C42 6684   2.975   0.320   4.321
  124DOPC   C43 6685   3.080   0.214   4.290
  124DOPC   C44 6686   3.115   0.188   4.158
  124DOPC   C45 6687   3.048   0.266   4.045
  124DOPC   C46 6688   3.095   0.218   3.907
  124DOPC   C47 6689   3.245   0.237   3.889
  124DOPC   C48 6690   3.293   0.190   3.752
  124DOPC   C49 6691   3.224   0.269   3.640
  124DOPC   C50 6692   3.279   0.229   3.503
  124DOPC   CA1 6693   3.214   0.311   3.391
  124DOPC   CA2 6694   3.273   0.275   3.255
  124DOPC   CA3 6695   3.378   1.634   3.750
  124DOPC   CA4 6696   3.340   1.675   3.608
  125DOPC    C1 6697   2.756   5.093   5.833
  125DOPC    C2 6698   2.836   5.267   5.976
  125DOPC    C3 6699   2.663   5.122   6.047
  125DOPC    N4 6700   2.789   5.128   5.972
  125DOPC    C5 6701   2.883   5.034   6.038
  125DOPC    C6 6702   3.011   4.988   5.963
  125DOPC    O7 6703   3.109   5.090   5.942
  125DOPC    P8 6704   3.235   5.028   5.872
  125DOPC    O9 6705   3.339   5.017   5.975
  125DOPC   O10 6706   3.190   4.911   5.795
  125DOPC   O11 6707   3.260   5.151   5.779
  125DOPC   C12 6708   3.167   5.144   5.671
  125DOPC   C13 6709   3.168   5.269   5.582
  125DOPC   O14 6710   3.069   5.270   5.475
  125DOPC   C15 6711   2.937   5.288   5.503
  125DOPC   O16 6712   2.897   5.298   5.619
  125DOPC   C17 6713   2.842   5.298   5.383
  125DOPC   C18 6714   2.909   5.368   5.264
  125DOPC   C19 6715   2.815   5.383   5.145
  125DOPC   C20 6716   2.889   5.445   5.027
  125DOPC   C21 6717   2.797   5.462   4.906
  125DOPC   C22 6718   2.876   5.516   4.787
  125DOPC   C23 6719   2.786   5.534   4.665
  125DOPC   C24 6720   2.866   5.585   4.545
  125DOPC   C25 6721   2.802   5.610   4.424
  125DOPC   C26 6722   2.651   5.586   4.412
  125DOPC   C27 6723   2.602   5.621   4.272
  125DOPC   C28 6724   2.633   5.768   4.239
  125DOPC   C29 6725   2.586   5.804   4.098
  125DOPC   C30 6726   2.620   5.949   4.067
  125DOPC   C31 6727   2.575   5.988   3.926
  125DOPC   C32 6728   3.315   5.280   5.535
  125DOPC   O33 6729   3.369   5.158   5.481
  125DOPC   C34 6730   3.501   5.158   5.456
  125DOPC   O35 6731   3.575   5.243   5.505
  125DOPC   C36 6732   3.555   5.031   5.390
  125DOPC   C37 6733   3.611   5.060   5.251
  125DOPC   C38 6734   3.651   4.930   5.181
  125DOPC   C39 6735   3.709   4.958   5.042
  125DOPC   C40 6736   3.734   4.827   4.968
  125DOPC   C41 6737   3.793   4.852   4.829
  125DOPC   C42 6738   3.799   4.722   4.749
  125DOPC   C43 6739   3.868   4.742   4.614
  125DOPC   C44 6740   3.872   4.637   4.524
  125DOPC   C45 6741   3.802   4.505   4.558
  125DOPC   C46 6742   3.828   4.400   4.451
  125DOPC   C47 6743   3.783   4.449   4.313
  125DOPC   C48 6744   3.813   4.345   4.206
  125DOPC   C49 6745   3.780   4.398   4.066
  125DOPC   C50 6746   3.817   4.294   3.959
  125DOPC   CA1 6747   3.791   4.349   3.819
  125DOPC   CA2 6748   3.827   4.245   3.712
  125DOPC   CA3 6749   2.613   6.133   3.896
  125DOPC   CA4 6750   2.566   6.176   3.757
  126DOPC    C1 6751   1.330   4.160   5.888
  126DOPC    C2 6752   1.436   3.991   6.017
  126DOPC    C3 6753   1.500   4.213   6.050
  126DOPC    N4 6754   1.458   4.118   5.946
  126DOPC    C5 6755   1.563   4.094   5.843
  126DOPC    C6 6756   1.594   4.209   5.743
  126DOPC    O7 6757   1.656   4.322   5.802
  126DOPC    P8 6758   1.629   4.444   5.708
  126DOPC    O9 6759   1.485   4.440   5.679
  126DOPC   O10 6760   1.690   4.557   5.778
  126DOPC   O11 6761   1.714   4.400   5.584
  126DOPC   C12 6762   1.686   4.484   5.473
  126DOPC   C13 6763   1.747   4.432   5.341
  126DOPC   O14 6764   1.674   4.324   5.273
  126DOPC   C15 6765   1.560   4.355   5.205
  126DOPC   O16 6766   1.497   4.457   5.232
  126DOPC   C17 6767   1.500   4.241   5.123
  126DOPC   C18 6768   1.546   4.240   4.977
  126DOPC   C19 6769   1.479   4.349   4.893
  126DOPC   C20 6770   1.517   4.333   4.746
  126DOPC   C21 6771   1.436   4.428   4.657
  126DOPC   C22 6772   1.466   4.401   4.509
  126DOPC   C23 6773   1.376   4.485   4.418
  126DOPC   C24 6774   1.403   4.455   4.270
  126DOPC   C25 6775   1.329   4.520   4.172
  126DOPC   C26 6776   1.222   4.621   4.215
  126DOPC   C27 6777   1.160   4.694   4.095
  126DOPC   C28 6778   1.266   4.770   4.016
  126DOPC   C29 6779   1.202   4.865   3.914
  126DOPC   C30 6780   1.111   4.792   3.816
  126DOPC   C31 6781   1.044   4.892   3.722
  126DOPC   C32 6782   1.892   4.396   5.373
  126DOPC   O33 6783   1.980   4.509   5.377
  126DOPC   C34 6784   2.110   4.480   5.400
  126DOPC   O35 6785   2.145   4.366   5.432
  126DOPC   C36 6786   2.208   4.597   5.390
  126DOPC   C37 6787   2.346   4.555   5.337
  126DOPC   C38 6788   2.343   4.516   5.189
  126DOPC   C39 6789   2.304   4.634   5.101
  126DOPC   C40 6790   2.304   4.593   4.954
  126DOPC   C41 6791   2.442   4.543   4.910
  126DOPC   C42 6792   2.439   4.503   4.763
  126DOPC   C43 6793   2.574   4.451   4.715
  126DOPC   C44 6794   2.588   4.414   4.581
  126DOPC   C45 6795   2.467   4.427   4.489
  126DOPC   C46 6796   2.501   4.393   4.344
  126DOPC   C47 6797   2.375   4.412   4.258
  126DOPC   C48 6798   2.402   4.390   4.109
  126DOPC   C49 6799   2.271   4.409   4.032
  126DOPC   C50 6800   2.213   4.548   4.059
  126DOPC   CA1 6801   2.076   4.565   3.993
  126DOPC   CA2 6802   2.085   4.548   3.841
  126DOPC   CA3 6803   0.950   4.823   3.624
  126DOPC   CA4 6804   0.880   4.925   3.533
  127DOPC    C1 6805   2.927   6.455   5.586
  127DOPC    C2 6806   3.133   6.336   5.586
  127DOPC    C3 6807   3.128   0.098   5.567
  127DOPC    N4 6808   3.066   6.458   5.632
  127DOPC    C5 6809   3.063   6.468   5.781
  127DOPC    C6 6810   3.196   6.471   5.860
  127DOPC    O7 6811   3.268   0.118   5.846
  127DOPC    P8 6812   3.420   0.091   5.868
  127DOPC    O9 6813   3.496   0.215   5.851
  127DOPC   O10 6814   3.441   6.475   5.981
  127DOPC   O11 6815   3.434   6.474   5.743
  127DOPC   C12 6816   3.546   0.033   5.663
  127DOPC   C13 6817   3.561   6.414   5.543
  127DOPC   O14 6818   3.471   6.444   5.432
  127DOPC   C15 6819   3.505   0.069   5.348
  127DOPC   O16 6820   3.610   0.131   5.366
  127DOPC   C17 6821   3.416   0.094   5.225
  127DOPC   C18 6822   3.279   0.026   5.228
  127DOPC   C19 6823   3.279   6.357   5.180
  127DOPC   C20 6824   3.136   6.303   5.173
  127DOPC   C21 6825   3.054   6.392   5.081
  127DOPC   C22 6826   2.912   6.340   5.059
  127DOPC   C23 6827   2.838   6.437   4.965
  127DOPC   C24 6828   2.703   6.383   4.920
  127DOPC   C25 6829   2.629   6.458   4.830
  127DOPC   C26 6830   2.683   0.119   4.787
  127DOPC   C27 6831   2.610   0.173   4.664
  127DOPC   C28 6832   2.635   0.081   4.544
  127DOPC   C29 6833   2.580   0.142   4.415
  127DOPC   C30 6834   2.614   0.054   4.295
  127DOPC   C31 6835   2.567   0.119   4.165
  127DOPC   C32 6836   3.553   6.271   5.600
  127DOPC   O33 6837   3.587   6.164   5.509
  127DOPC   C34 6838   3.488   6.130   5.423
  127DOPC   O35 6839   3.369   6.138   5.456
  127DOPC   C36 6840   3.533   6.062   5.294
  127DOPC   C37 6841   3.588   6.171   5.202
  127DOPC   C38 6842   3.651   6.120   5.073
  127DOPC   C39 6843   3.694   6.242   4.992
  127DOPC   C40 6844   3.775   6.203   4.868
  127DOPC   C41 6845   3.817   6.329   4.792
  127DOPC   C42 6846   3.916   6.293   4.681
  127DOPC   C43 6847   4.039   6.225   4.742
  127DOPC   C44 6848   4.146   6.190   4.661
  127DOPC   C45 6849   4.142   6.219   4.511
  127DOPC   C46 6850   4.273   6.174   4.447
  127DOPC   C47 6851   4.294   6.024   4.467
  127DOPC   C48 6852   4.434   5.983   4.420
  127DOPC   C49 6853   4.456   5.833   4.438
  127DOPC   C50 6854   4.602   5.797   4.408
  127DOPC   CA1 6855   4.694   5.873   4.504
  127DOPC   CA2 6856   4.841   5.843   4.476
  127DOPC   CA3 6857   2.601   0.032   4.044
  127DOPC   CA4 6858   2.752   0.007   4.035
  128DOPC    C1 6859   1.136   4.540   5.532
  128DOPC    C2 6860   1.053   4.535   5.314
  128DOPC    C3 6861   0.985   4.366   5.467
  128DOPC    N4 6862   1.098   4.449   5.423
  128DOPC    C5 6863   1.213   4.370   5.372
  128DOPC    C6 6864   1.295   4.281   5.469
  128DOPC    O7 6865   1.224   4.170   5.524
  128DOPC    P8 6866   1.305   4.037   5.503
  128DOPC    O9 6867   1.447   4.073   5.508
  128DOPC   O10 6868   1.248   3.934   5.592
  128DOPC   O11 6869   1.256   4.013   5.357
  128DOPC   C12 6870   1.124   3.959   5.358
  128DOPC   C13 6871   1.072   3.928   5.217
  128DOPC   O14 6872   1.105   3.794   5.170
  128DOPC   C15 6873   1.021   3.692   5.200
  128DOPC   O16 6874   0.921   3.710   5.271
  128DOPC   C17 6875   1.063   3.553   5.152
  128DOPC   C18 6876   0.989   3.507   5.026
  128DOPC   C19 6877   1.021   3.593   4.904
  128DOPC   C20 6878   0.950   3.539   4.780
  128DOPC   C21 6879   0.975   3.627   4.657
  128DOPC   C22 6880   0.901   3.567   4.538
  128DOPC   C23 6881   0.909   3.652   4.412
  128DOPC   C24 6882   1.052   3.664   4.358
  128DOPC   C25 6883   1.070   3.720   4.232
  128DOPC   C26 6884   0.947   3.768   4.155
  128DOPC   C27 6885   0.980   3.807   4.011
  128DOPC   C28 6886   0.853   3.850   3.938
  128DOPC   C29 6887   0.879   3.875   3.790
  128DOPC   C30 6888   0.981   3.987   3.767
  128DOPC   C31 6889   1.007   4.003   3.617
  128DOPC   C32 6890   1.125   4.047   5.134
  128DOPC   O33 6891   1.070   4.066   5.003
  128DOPC   C34 6892   1.109   4.182   4.947
  128DOPC   O35 6893   1.148   4.277   5.016
  128DOPC   C36 6894   1.073   4.201   4.799
  128DOPC   C37 6895   1.160   4.113   4.709
  128DOPC   C38 6896   1.130   4.143   4.563
  128DOPC   C39 6897   1.218   4.060   4.469
  128DOPC   C40 6898   1.194   4.107   4.325
  128DOPC   C41 6899   1.285   4.035   4.225
  128DOPC   C42 6900   1.268   4.101   4.088
  128DOPC   C43 6901   1.359   4.040   3.982
  128DOPC   C44 6902   1.375   4.111   3.864
  128DOPC   C45 6903   1.301   4.244   3.851
  128DOPC   C46 6904   1.347   4.324   3.729
  128DOPC   C47 6905   1.321   4.250   3.598
  128DOPC   C48 6906   1.372   4.336   3.482
  128DOPC   C49 6907   1.299   4.471   3.480
  128DOPC   C50 6908   1.364   4.566   3.380
  128DOPC   CA1 6909   1.510   4.591   3.421
  128DOPC   CA2 6910   1.577   4.689   3.325
  128DOPC   CA3 6911   0.877   4.034   3.542
  128DOPC   CA4 6912   0.903   4.049   3.392
  129SOL     OW 6913   1.238   2.339   6.999
  129SOL    HW1 6914   1.168   2.388   7.051
  129SOL    HW2 6915   1.200   2.310   6.911
  130SOL     OW 6916   0.092   1.564   6.137
  130SOL    HW1 6917   0.148   1.501   6.083
  130SOL    HW2 6918   6.581   1.565   6.100
  131SOL     OW 6919   5.924   3.440   5.390
  131SOL    HW1 6920   6.009   3.475   5.428
  131SOL    HW2 6921   5.847   3.490   5.430
  132SOL     OW 6922   4.629   0.383   0.030
  132SOL    HW1 6923   4.692   0.343   0.097
  132SOL    HW2 6924   4.618   0.321   7.367
  133SOL     OW 6925   2.764   1.768   1.272
  133SOL    HW1 6926   2.726   1.823   1.347
  133SOL    HW2 6927   2.798   1.682   1.308
  134SOL     OW 6928   6.018   6.415   0.270
  134SOL    HW1 6929   6.027   6.369   0.182
  134SOL    HW2 6930   6.080   0.018   0.273
  135SOL     OW 6931   5.062   1.779   6.083
  135SOL    HW1 6932   5.051   1.769   5.984
  135SOL    HW2 6933   5.102   1.695   6.120
  136SOL     OW 6934   0.302   2.788   6.926
  136SOL    HW1 6935   0.233   2.808   6.995
  136SOL    HW2 6936   0.261   2.734   6.852
  137SOL     OW 6937   1.262   3.485   6.736
  137SOL    HW1 6938   1.331   3.478   6.808
  137SOL    HW2 6939   1.187   3.543   6.767
  138SOL     OW 6940   4.174   0.341   0.313
  138SOL    HW1 6941   4.180   0.390   0.400
  138SOL    HW2 6942   4.237   0.382   0.247
  139SOL     OW 6943   5.550   5.528   1.007
  139SOL    HW1 6944   5.610   5.449   1.025
  139SOL    HW2 6945   5.455   5.497   1.000
  140SOL     OW 6946   3.674   1.290   6.167
  140SOL    HW1 6947   3.576   1.285   6.148
  140SOL    HW2 6948   3.713   1.369   6.119
  141SOL     OW 6949   6.390   5.052   0.731
  141SOL    HW1 6950   6.447   5.011   0.660
  141SOL    HW2 6951   6.448   5.089   0.803
  142SOL     OW 6952   4.738   2.897   6.520
  142SOL    HW1 6953   4.656   2.888   6.465
  142SOL    HW2 6954   4.804   2.956   6.472
  143SOL     OW 6955   4.459   6.071   0.279
  143SOL    HW1 6956   4.528   6.138   0.308
  143SOL    HW2 6957   4.482   6.038   0.187
  144SOL     OW 6958   2.291   2.739   0.988
  144SOL    HW1 6959   2.287   2.686   1.073
  144SOL    HW2 6960   2.383   2.732   0.949
  145SOL     OW 6961   2.908   2.104   0.571
  145SOL    HW1 6962   2.920   2.187   0.624
  145SOL    HW2 6963   2.995   2.054   0.567
  146SOL     OW 6964   6.324   2.482   6.922
  146SOL    HW1 6965   6.335   2.396   6.972
  146SOL    HW2 6966   6.248   2.474   6.857
  147SOL     OW 6967   6.430   4.063   1.313
  147SOL    HW1 6968   6.347   4.027   1.270
  147SOL    HW2 6969   6.480   3.988   1.356
  148SOL     OW 6970   4.428   5.219   5.708
  148SOL    HW1 6971   4.365   5.293   5.685
  148SOL    HW2 6972   4.496   5.209   5.635
  149SOL     OW 6973   5.563   3.692   0.622
  149SOL    HW1 6974   5.493   3.749   0.665
  149SOL    HW2 6975   5.613   3.641   0.693
  150SOL     OW 6976   3.913   1.499   0.068
  150SOL    HW1 6977   3.886   1.587   0.106
  150SOL    HW2 6978   3.922   1.432   0.142
  151SOL     OW 6979   2.701   5.843   0.148
  151SOL    HW1 6980   2.777   5.866   0.088
  151SOL    HW2 6981   2.723   5.760   0.200
  152SOL     OW 6982   2.175   4.611   6.185
  152SOL    HW1 6983   2.271   4.624   6.206
  152SOL    HW2 6984   2.150   4.666   6.105
  153SOL     OW 6985   0.774   4.683   6.520
  153SOL    HW1 6986   0.742   4.752   6.455
  153SOL    HW2 6987   0.742   4.708   6.612
  154SOL     OW 6988   1.058   2.128   6.408
  154SOL    HW1 6989   1.077   2.095   6.501
  154SOL    HW2 6990   1.048   2.049   6.347
  155SOL     OW 6991   0.982   1.457   0.252
  155SOL    HW1 6992   0.925   1.456   0.169
  155SOL    HW2 6993   0.934   1.503   0.325
  156SOL     OW 6994   5.062   5.654   1.004
  156SOL    HW1 6995   5.063   5.670   0.906
  156SOL    HW2 6996   5.140   5.700   1.047
  157SOL     OW 6997   0.223   3.169   6.479
  157SOL    HW1 6998   0.134   3.210   6.496
  157SOL    HW2 6999   0.285   3.239   6.443
  158SOL     OW 7000   6.273   1.701   6.221
  158SOL    HW1 7001   6.203   1.722   6.290
  158SOL    HW2 7002   6.363   1.722   6.258
  159SOL     OW 7003   3.040   1.390   6.817
  159SOL    HW1 7004   2.961   1.392   6.754
  159SOL    HW2 7005   3.091   1.475   6.808
  160SOL     OW 7006   4.409   4.632   7.321
  160SOL    HW1 7007   4.374   4.717   7.283
  160SOL    HW2 7008   4.338   4.562   7.317
  161SOL     OW 7009   4.599   4.088   6.310
  161SOL    HW1 7010   4.677   4.122   6.258
  161SOL    HW2 7011   4.611   4.110   6.407
  162SOL     OW 7012   3.330   0.630   5.385
  162SOL    HW1 7013   3.244   0.679   5.396
  162SOL    HW2 7014   3.393   0.686   5.330
  163SOL     OW 7015   3.224   5.530   5.804
  163SOL    HW1 7016   3.146   5.588   5.782
  163SOL    HW2 7017   3.298   5.548   5.740
  164SOL     OW 7018   6.364   5.098   7.366
  164SOL    HW1 7019   6.338   5.041   7.288
  164SOL    HW2 7020   6.311   5.070   0.032
  165SOL     OW 7021   2.326   3.927   7.084
  165SOL    HW1 7022   2.332   4.006   7.145
  165SOL    HW2 7023   2.393   3.937   7.011
  166SOL     OW 7024   1.352   2.458   1.067
  166SOL    HW1 7025   1.397   2.436   0.980
  166SOL    HW2 7026   1.275   2.520   1.049
  167SOL     OW 7027   5.657   5.022   0.106
  167SOL    HW1 7028   5.670   5.009   0.008
  167SOL    HW2 7029   5.584   5.089   0.121
  168SOL     OW 7030   3.292   1.002   6.201
  168SOL    HW1 7031   3.263   0.967   6.290
  168SOL    HW2 7032   3.218   0.992   6.135
  169SOL     OW 7033   3.625   1.434   6.709
  169SOL    HW1 7034   3.677   1.475   6.634
  169SOL    HW2 7035   3.589   1.345   6.680
  170SOL     OW 7036   0.475   3.861   5.327
  170SOL    HW1 7037   0.438   3.924   5.259
  170SOL    HW2 7038   0.536   3.796   5.282
  171SOL     OW 7039   5.579   6.074   7.045
  171SOL    HW1 7040   5.532   6.139   6.985
  171SOL    HW2 7041   5.665   6.046   7.002
  172SOL     OW 7042   3.156   2.160   0.354
  172SOL    HW1 7043   3.163   2.116   0.264
  172SOL    HW2 7044   3.145   2.090   0.424
  173SOL     OW 7045   3.092   2.380   1.067
  173SOL    HW1 7046   3.050   2.311   1.125
  173SOL    HW2 7047   3.181   2.405   1.104
  174SOL     OW 7048   1.248   3.893   0.920
  174SOL    HW1 7049   1.204   3.981   0.903
  174SOL    HW2 7050   1.323   3.905   0.985
  175SOL     OW 7051   6.253   1.267   6.562
  175SOL    HW1 7052   6.297   1.212   6.491
  175SOL    HW2 7053   6.267   1.364   6.543
  176SOL     OW 7054   4.963   4.740   1.983
  176SOL    HW1 7055   4.910   4.805   2.038
  176SOL    HW2 7056   4.901   4.686   1.926
  177SOL     OW 7057   4.256   5.460   0.973
  177SOL    HW1 7058   4.342   5.464   0.923
  177SOL    HW2 7059   4.267   5.497   1.065
  178SOL     OW 7060   1.431   0.253   7.040
  178SOL    HW1 7061   1.444   0.258   7.139
  178SOL    HW2 7062   1.335   0.239   7.019
  179SOL     OW 7063   4.455   4.955   5.760
  179SOL    HW1 7064   4.448   4.906   5.673
  179SOL    HW2 7065   4.435   5.051   5.747
  180SOL     OW 7066   2.452   0.034   0.790
  180SOL    HW1 7067   2.408   6.422   0.768
  180SOL    HW2 7068   2.429   0.101   0.719
  181SOL     OW 7069   2.313   4.155   0.310
  181SOL    HW1 7070   2.288   4.084   0.376
  181SOL    HW2 7071   2.381   4.118   0.246
  182SOL     OW 7072   2.789   1.661   5.699
  182SOL    HW1 7073   2.807   1.588   5.765
  182SOL    HW2 7074   2.747   1.622   5.617
  183SOL     OW 7075   1.525   1.810   6.046
  183SOL    HW1 7076   1.573   1.891   6.082
  183SOL    HW2 7077   1.488   1.757   6.122
  184SOL     OW 7078   1.713   6.285   6.715
  184SOL    HW1 7079   1.625   6.330   6.702
  184SOL    HW2 7080   1.786   6.342   6.676
  185SOL     OW 7081   5.857   1.621   1.881
  185SOL    HW1 7082   5.803   1.538   1.898
  185SOL    HW2 7083   5.820   1.696   1.936
  186SOL     OW 7084   4.822   0.471   6.166
  186SOL    HW1 7085   4.903   0.414   6.150
  186SOL    HW2 7086   4.785   0.451   6.256
  187SOL     OW 7087   4.407   4.540   0.173
  187SOL    HW1 7088   4.421   4.579   0.082
  187SOL    HW2 7089   4.469   4.584   0.238
  188SOL     OW 7090   3.718   5.584   6.559
  188SOL    HW1 7091   3.772   5.669   6.564
  188SOL    HW2 7092   3.775   5.511   6.523
  189SOL     OW 7093   2.533   3.664   0.660
  189SOL    HW1 7094   2.545   3.649   0.562
  189SOL    HW2 7095   2.564   3.582   0.710
  190SOL     OW 7096   0.669   5.881   1.211
  190SOL    HW1 7097   0.668   5.954   1.143
  190SOL    HW2 7098   0.588   5.888   1.269
  191SOL     OW 7099   2.333   1.446   0.541
  191SOL    HW1 7100   2.250   1.457   0.486
  191SOL    HW2 7101   2.310   1.453   0.638
  192SOL     OW 7102   0.679   2.811   0.085
  192SOL    HW1 7103   0.613   2.773   0.150
  192SOL    HW2 7104   0.667   2.910   0.080
  193SOL     OW 7105   3.550   4.696   5.588
  193SOL    HW1 7106   3.589   4.622   5.534
  193SOL    HW2 7107   3.623   4.754   5.622
  194SOL     OW 7108   6.037   4.502   1.311
  194SOL    HW1 7109   5.996   4.534   1.226
  194SOL    HW2 7110   5.982   4.534   1.388
  195SOL     OW 7111   6.217   5.549   7.305
  195SOL    HW1 7112   6.197   5.510   7.396
  195SOL    HW2 7113   6.313   5.577   7.302
  196SOL     OW 7114   1.729   3.624   0.365
  196SOL    HW1 7115   1.669   3.575   0.301
  196SOL    HW2 7116   1.768   3.560   0.431
  197SOL     OW 7117   4.634   6.273   0.395
  197SOL    HW1 7118   4.730   6.283   0.420
  197SOL    HW2 7119   4.577   6.277   0.478
  198SOL     OW 7120   1.239   4.785   1.820
  198SOL    HW1 7121   1.244   4.885   1.826
  198SOL    HW2 7122   1.159   4.758   1.767
  199SOL     OW 7123   2.103   5.572   5.902
  199SOL    HW1 7124   2.104   5.649   5.838
  199SOL    HW2 7125   2.195   5.558   5.939
  200SOL     OW 7126   3.322   2.785   7.313
  200SOL    HW1 7127   3.305   2.852   7.384
  200SOL    HW2 7128   3.304   2.693   7.348
  201SOL     OW 7129   4.570   3.445   1.864
  201SOL    HW1 7130   4.613   3.357   1.843
  201SOL    HW2 7131   4.641   3.511   1.890
  202SOL     OW 7132   4.413   1.605   0.569
  202SOL    HW1 7133   4.468   1.521   0.575
  202SOL    HW2 7134   4.471   1.684   0.585
  203SOL     OW 7135   4.791   4.821   0.505
  203SOL    HW1 7136   4.708   4.847   0.553
  203SOL    HW2 7137   4.823   4.732   0.540
  204SOL     OW 7138   4.525   4.121   0.817
  204SOL    HW1 7139   4.505   4.210   0.860
  204SOL    HW2 7140   4.439   4.075   0.794
  205SOL     OW 7141   1.063   5.714   1.744
  205SOL    HW1 7142   1.113   5.641   1.791
  205SOL    HW2 7143   0.989   5.747   1.803
  206SOL     OW 7144   5.003   3.042   6.055
  206SOL    HW1 7145   5.074   3.025   6.124
  206SOL    HW2 7146   5.030   3.000   5.969
  207SOL     OW 7147   5.427   3.228   6.095
  207SOL    HW1 7148   5.491   3.305   6.100
  207SOL    HW2 7149   5.351   3.252   6.035
  208SOL     OW 7150   0.580   6.378   5.636
  208SOL    HW1 7151   0.674   6.388   5.668
  208SOL    HW2 7152   0.535   6.468   5.637
  209SOL     OW 7153   6.451   2.529   1.438
  209SOL    HW1 7154   6.407   2.491   1.519
  209SOL    HW2 7155   6.523   2.593   1.466
  210SOL     OW 7156   3.934   4.274   6.544
  210SOL    HW1 7157   3.933   4.182   6.584
  210SOL    HW2 7158   4.021   4.288   6.496
  211SOL     OW 7159   1.211   2.330   5.237
  211SOL    HW1 7160   1.137   2.395   5.216
  211SOL    HW2 7161   1.299   2.378   5.233
  212SOL     OW 7162   2.900   1.944   0.075
  212SOL    HW1 7163   2.863   1.920   7.400
  212SOL    HW2 7164   2.861   1.884   0.145
  213SOL     OW 7165   5.524   4.260   0.671
  213SOL    HW1 7166   5.606   4.272   0.726
  213SOL    HW2 7167   5.452   4.322   0.704
  214SOL     OW 7168   2.169   0.887   6.637
  214SOL    HW1 7169   2.251   0.898   6.581
  214SOL    HW2 7170   2.185   0.815   6.705
  215SOL     OW 7171   1.428   4.430   0.478
  215SOL    HW1 7172   1.471   4.494   0.414
  215SOL    HW2 7173   1.330   4.423   0.457
  216SOL     OW 7174   3.903   0.159   6.265
  216SOL    HW1 7175   3.856   0.161   6.353
  216SOL    HW2 7176   3.923   0.252   6.236
  217SOL     OW 7177   5.312   4.774   6.627
  217SOL    HW1 7178   5.407   4.800   6.607
  217SOL    HW2 7179   5.286   4.808   6.717
  218SOL     OW 7180   2.301   2.786   7.390
  218SOL    HW1 7181   2.221   2.762   0.030
  218SOL    HW2 7182   2.384   2.773   0.029
  219SOL     OW 7183   2.973   2.174   1.207
  219SOL    HW1 7184   2.989   2.127   1.294
  219SOL    HW2 7185   2.876   2.173   1.185
  220SOL     OW 7186   5.748   4.650   6.419
  220SOL    HW1 7187   5.782   4.681   6.330
  220SOL    HW2 7188   5.665   4.596   6.406
  221SOL     OW 7189   2.260   1.645   0.084
  221SOL    HW1 7190   2.322   1.571   0.112
  221SOL    HW2 7191   2.289   1.731   0.126
  222SOL     OW 7192   5.264   2.438   5.766
  222SOL    HW1 7193   5.212   2.475   5.689
  222SOL    HW2 7194   5.330   2.371   5.733
  223SOL     OW 7195   1.081   6.363   5.618
  223SOL    HW1 7196   1.090   6.389   5.522
  223SOL    HW2 7197   1.111   6.439   5.676
  224SOL     OW 7198   5.214   3.263   7.001
  224SOL    HW1 7199   5.157   3.181   7.003
  224SOL    HW2 7200   5.157   3.344   7.014
  225SOL     OW 7201   3.777   5.734   0.626
  225SOL    HW1 7202   3.815   5.822   0.652
  225SOL    HW2 7203   3.723   5.745   0.542
  226SOL     OW 7204   1.658   5.554   6.742
  226SOL    HW1 7205   1.710   5.639   6.748
  226SOL    HW2 7206   1.584   5.565   6.676
  227SOL     OW 7207   3.366   2.211   6.607
  227SOL    HW1 7208   3.417   2.253   6.531
  227SOL    HW2 7209   3.315   2.281   6.656
  228SOL     OW 7210   3.085   2.707   6.385
  228SOL    HW1 7211   3.092   2.781   6.452
  228SOL    HW2 7212   3.087   2.746   6.293
  229SOL     OW 7213   1.323   6.208   0.703
  229SOL    HW1 7214   1.360   6.285   0.755
  229SOL    HW2 7215   1.397   6.164   0.652
  230SOL     OW 7216   0.638   1.145   6.149
  230SOL    HW1 7217   0.636   1.045   6.149
  230SOL    HW2 7218   0.703   1.177   6.080
  231SOL     OW 7219   1.737   0.844   6.563
  231SOL    HW1 7220   1.668   0.790   6.515
  231SOL    HW2 7221   1.801   0.783   6.610
  232SOL     OW 7222   0.649   3.083   0.054
  232SOL    HW1 7223   0.741   3.118   0.036
  232SOL    HW2 7224   0.600   3.149   0.111
  233SOL     OW 7225   0.573   4.967   5.232
  233SOL    HW1 7226   0.507   4.913   5.180
  233SOL    HW2 7227   0.627   4.906   5.290
  234SOL     OW 7228   6.576   4.710   1.081
  234SOL    HW1 7229   6.528   4.692   0.996
  234SOL    HW2 7230   0.087   4.672   1.075
  235SOL     OW 7231   6.021   3.839   1.024
  235SOL    HW1 7232   5.930   3.846   1.063
  235SOL    HW2 7233   6.027   3.757   0.967
  236SOL     OW 7234   3.388   5.994   0.698
  236SOL    HW1 7235   3.448   6.062   0.656
  236SOL    HW2 7236   3.393   6.002   0.797
  237SOL     OW 7237   4.652   1.657   6.315
  237SOL    HW1 7238   4.637   1.618   6.406
  237SOL    HW2 7239   4.743   1.699   6.311
  238SOL     OW 7240   4.020   0.773   6.991
  238SOL    HW1 7241   3.978   0.686   7.017
  238SOL    HW2 7242   4.115   0.774   7.019
  239SOL     OW 7243   2.315   0.975   0.220
  239SOL    HW1 7244   2.355   0.900   0.273
  239SOL    HW2 7245   2.257   1.030   0.279
  240SOL     OW 7246   4.299   2.185   5.062
  240SOL    HW1 7247   4.385   2.201   5.013
  240SOL    HW2 7248   4.235   2.259   5.042
  241SOL     OW 7249   0.401   3.642   5.909
  241SOL    HW1 7250   0.491   3.611   5.878
  241SOL    HW2 7251   0.397   3.640   6.008
  242SOL     OW 7252   6.253   5.634   0.357
  242SOL    HW1 7253   6.185   5.707   0.366
  242SOL    HW2 7254   6.336   5.670   0.315
  243SOL     OW 7255   1.067   4.430   1.074
  243SOL    HW1 7256   1.062   4.523   1.038
  243SOL    HW2 7257   1.161   4.398   1.073
  244SOL     OW 7258   3.366   3.986   6.186
  244SOL    HW1 7259   3.287   3.940   6.144
  244SOL    HW2 7260   3.390   4.067   6.132
  245SOL     OW 7261   5.586   4.379   1.163
  245SOL    HW1 7262   5.504   4.422   1.126
  245SOL    HW2 7263   5.625   4.437   1.235
  246SOL     OW 7264   0.241   2.583   6.142
  246SOL    HW1 7265   0.242   2.674   6.183
  246SOL    HW2 7266   0.274   2.516   6.209
  247SOL     OW 7267   1.414   2.153   0.914
  247SOL    HW1 7268   1.492   2.107   0.957
  247SOL    HW2 7269   1.330   2.108   0.943
  248SOL     OW 7270   3.449   5.085   0.438
  248SOL    HW1 7271   3.427   5.026   0.515
  248SOL    HW2 7272   3.365   5.125   0.400
  249SOL     OW 7273   4.565   2.862   0.817
  249SOL    HW1 7274   4.652   2.817   0.794
  249SOL    HW2 7275   4.515   2.805   0.882
  250SOL     OW 7276   4.411   3.989   7.272
  250SOL    HW1 7277   4.315   3.999   7.248
  250SOL    HW2 7278   4.453   4.080   7.282
  251SOL     OW 7279   1.204   5.526   1.876
  251SOL    HW1 7280   1.199   5.432   1.911
  251SOL    HW2 7281   1.299   5.553   1.865
  252SOL     OW 7282   5.925   2.456   0.079
  252SOL    HW1 7283   5.991   2.481   0.149
  252SOL    HW2 7284   5.919   2.356   0.074
  253SOL     OW 7285   2.754   6.263   0.069
  253SOL    HW1 7286   2.853   6.265   0.056
  253SOL    HW2 7287   2.724   6.350   0.108
  254SOL     OW 7288   4.343   6.085   6.239
  254SOL    HW1 7289   4.396   6.040   6.311
  254SOL    HW2 7290   4.405   6.134   6.178
  255SOL     OW 7291   1.738   4.310   6.293
  255SOL    HW1 7292   1.830   4.269   6.295
  255SOL    HW2 7293   1.671   4.242   6.323
  256SOL     OW 7294   1.470   3.073   1.095
  256SOL    HW1 7295   1.454   2.987   1.144
  256SOL    HW2 7296   1.471   3.149   1.159
  257SOL     OW 7297   4.404   3.596   5.462
  257SOL    HW1 7298   4.362   3.552   5.383
  257SOL    HW2 7299   4.408   3.532   5.538
  258SOL     OW 7300   3.341   5.320   6.739
  258SOL    HW1 7301   3.244   5.298   6.740
  258SOL    HW2 7302   3.359   5.392   6.806
  259SOL     OW 7303   4.119   2.766   1.408
  259SOL    HW1 7304   4.146   2.853   1.451
  259SOL    HW2 7305   4.091   2.701   1.479
  260SOL     OW 7306   5.989   6.146   7.209
  260SOL    HW1 7307   5.988   6.200   7.293
  260SOL    HW2 7308   5.951   6.055   7.227
  261SOL     OW 7309   5.760   3.841   1.114
  261SOL    HW1 7310   5.759   3.911   1.186
  261SOL    HW2 7311   5.693   3.863   1.044
  262SOL     OW 7312   3.586   5.815   0.942
  262SOL    HW1 7313   3.620   5.727   0.910
  262SOL    HW2 7314   3.663   5.879   0.950
  263SOL     OW 7315   0.915   4.495   7.269
  263SOL    HW1 7316   0.959   4.500   7.358
  263SOL    HW2 7317   0.985   4.484   7.198
  264SOL     OW 7318   4.445   5.659   1.836
  264SOL    HW1 7319   4.485   5.572   1.867
  264SOL    HW2 7320   4.359   5.675   1.884
  265SOL     OW 7321   2.124   1.871   5.394
  265SOL    HW1 7322   2.079   1.798   5.343
  265SOL    HW2 7323   2.192   1.914   5.335
  266SOL     OW 7324   2.865   1.195   0.287
  266SOL    HW1 7325   2.827   1.106   0.313
  266SOL    HW2 7326   2.813   1.231   0.210
  267SOL     OW 7327   6.142   4.268   6.746
  267SOL    HW1 7328   6.128   4.209   6.825
  267SOL    HW2 7329   6.231   4.248   6.705
  268SOL     OW 7330   6.338   4.641   5.913
  268SOL    HW1 7331   6.313   4.544   5.918
  268SOL    HW2 7332   6.435   4.649   5.888
  269SOL     OW 7333   6.290   0.608   5.450
  269SOL    HW1 7334   6.239   0.681   5.403
  269SOL    HW2 7335   6.300   0.529   5.390
  270SOL     OW 7336   2.749   5.498   1.343
  270SOL    HW1 7337   2.757   5.458   1.434
  270SOL    HW2 7338   2.792   5.588   1.342
  271SOL     OW 7339   2.922   0.541   0.273
  271SOL    HW1 7340   2.993   0.607   0.249
  271SOL    HW2 7341   2.961   0.469   0.330
  272SOL     OW 7342   5.592   3.626   6.431
  272SOL    HW1 7343   5.555   3.716   6.456
  272SOL    HW2 7344   5.655   3.636   6.354
  273SOL     OW 7345   5.767   2.258   1.460
  273SOL    HW1 7346   5.799   2.353   1.462
  273SOL    HW2 7347   5.734   2.232   1.551
  274SOL     OW 7348   4.447   4.168   6.081
  274SOL    HW1 7349   4.509   4.129   6.149
  274SOL    HW2 7350   4.498   4.186   5.996
  275SOL     OW 7351   0.998   0.964   7.387
  275SOL    HW1 7352   1.064   1.008   7.326
  275SOL    HW2 7353   0.911   1.012   7.383
  276SOL     OW 7354   1.475   3.255   1.307
  276SOL    HW1 7355   1.396   3.207   1.347
  276SOL    HW2 7356   1.474   3.351   1.334
  277SOL     OW 7357   6.015   2.826   6.851
  277SOL    HW1 7358   5.937   2.825   6.788
  277SOL    HW2 7359   6.022   2.738   6.898
  278SOL     OW 7360   1.425   6.101   5.916
  278SOL    HW1 7361   1.334   6.062   5.900
  278SOL    HW2 7362   1.441   6.175   5.850
  279SOL     OW 7363   2.119   3.312   6.184
  279SOL    HW1 7364   2.115   3.262   6.098
  279SOL    HW2 7365   2.042   3.376   6.188
  280SOL     OW 7366   0.887   1.375   1.637
  280SOL    HW1 7367   0.885   1.284   1.678
  280SOL    HW2 7368   0.908   1.443   1.707
  281SOL     OW 7369   2.693   2.183   0.418
  281SOL    HW1 7370   2.782   2.148   0.447
  281SOL    HW2 7371   2.639   2.207   0.499
  282SOL     OW 7372   0.368   3.449   0.544
  282SOL    HW1 7373   0.356   3.350   0.555
  282SOL    HW2 7374   0.425   3.467   0.464
  283SOL     OW 7375   0.569   5.563   0.589
  283SOL    HW1 7376   0.537   5.618   0.666
  283SOL    HW2 7377   0.535   5.602   0.503
  284SOL     OW 7378   5.901   3.765   6.681
  284SOL    HW1 7379   5.847   3.718   6.751
  284SOL    HW2 7380   5.846   3.837   6.639
  285SOL     OW 7381   1.895   0.288   6.222
  285SOL    HW1 7382   1.958   0.260   6.150
  285SOL    HW2 7383   1.944   0.291   6.310
  286SOL     OW 7384   1.688   4.297   7.333
  286SOL    HW1 7385   1.706   4.199   7.326
  286SOL    HW2 7386   1.759   4.340   7.390
  287SOL     OW 7387   6.410   6.430   0.835
  287SOL    HW1 7388   6.464   0.025   0.879
  287SOL    HW2 7389   6.368   6.466   0.752
  288SOL     OW 7390   1.175   5.458   0.826
  288SOL    HW1 7391   1.148   5.533   0.886
  288SOL    HW2 7392   1.093   5.418   0.784
  289SOL     OW 7393   4.231   6.046   0.439
  289SOL    HW1 7394   4.305   6.068   0.375
  289SOL    HW2 7395   4.204   6.128   0.489
  290SOL     OW 7396   1.876   5.956   1.096
  290SOL    HW1 7397   1.914   5.865   1.080
  290SOL    HW2 7398   1.805   5.975   1.029
  291SOL     OW 7399   0.203   3.302   0.012
  291SOL    HW1 7400   0.229   3.246   0.090
  291SOL    HW2 7401   0.182   3.395   0.044
  292SOL     OW 7402   3.537   3.415   1.214
  292SOL    HW1 7403   3.509   3.374   1.127
  292SOL    HW2 7404   3.516   3.352   1.288
  293SOL     OW 7405   3.807   4.684   1.203
  293SOL    HW1 7406   3.767   4.671   1.294
  293SOL    HW2 7407   3.899   4.721   1.211
  294SOL     OW 7408   2.527   4.294   6.036
  294SOL    HW1 7409   2.541   4.224   5.965
  294SOL    HW2 7410   2.472   4.368   5.999
  295SOL     OW 7411   4.070   1.497   5.818
  295SOL    HW1 7412   4.062   1.398   5.829
  295SOL    HW2 7413   4.111   1.518   5.729
  296SOL     OW 7414   2.263   5.700   6.203
  296SOL    HW1 7415   2.336   5.750   6.248
  296SOL    HW2 7416   2.297   5.658   6.119
  297SOL     OW 7417   2.233   2.885   6.561
  297SOL    HW1 7418   2.290   2.825   6.617
  297SOL    HW2 7419   2.162   2.926   6.619
  298SOL     OW 7420   1.924   3.269   0.741
  298SOL    HW1 7421   2.018   3.238   0.756
  298SOL    HW2 7422   1.862   3.190   0.747
  299SOL     OW 7423   3.032   1.751   6.955
  299SOL    HW1 7424   3.008   1.848   6.952
  299SOL    HW2 7425   2.963   1.698   6.906
  300SOL     OW 7426   4.018   3.807   1.220
  300SOL    HW1 7427   4.094   3.760   1.175
  300SOL    HW2 7428   3.991   3.886   1.165
  301SOL     OW 7429   3.933   1.296   6.584
  301SOL    HW1 7430   3.881   1.381   6.577
  301SOL    HW2 7431   3.938   1.267   6.679
  302SOL     OW 7432   3.321   2.960   0.915
  302SOL    HW1 7433   3.258   2.900   0.964
  302SOL    HW2 7434   3.353   2.914   0.831
  303SOL     OW 7435   6.152   6.133   0.631
  303SOL    HW1 7436   6.105   6.045   0.621
  303SOL    HW2 7437   6.250   6.121   0.619
  304SOL     OW 7438   5.963   5.316   0.174
  304SOL    HW1 7439   6.050   5.364   0.159
  304SOL    HW2 7440   5.888   5.383   0.177
  305SOL     OW 7441   2.186   5.013   5.929
  305SOL    HW1 7442   2.126   5.091   5.946
  305SOL    HW2 7443   2.219   5.017   5.835
  306SOL     OW 7444   5.700   5.770   1.398
  306SOL    HW1 7445   5.673   5.793   1.491
  306SOL    HW2 7446   5.786   5.815   1.376
  307SOL     OW 7447   3.961   6.056   6.252
  307SOL    HW1 7448   3.886   6.108   6.294
  307SOL    HW2 7449   4.013   6.116   6.191
  308SOL     OW 7450   4.417   4.400   1.195
  308SOL    HW1 7451   4.505   4.417   1.241
  308SOL    HW2 7452   4.383   4.310   1.221
  309SOL     OW 7453   3.618   2.168   0.247
  309SOL    HW1 7454   3.547   2.206   0.307
  309SOL    HW2 7455   3.575   2.111   0.177
  310SOL     OW 7456   2.035   3.946   7.075
  310SOL    HW1 7457   2.131   3.919   7.082
  310SOL    HW2 7458   2.029   4.046   7.070
  311SOL     OW 7459   2.843   4.367   6.840
  311SOL    HW1 7460   2.822   4.320   6.925
  311SOL    HW2 7461   2.913   4.437   6.857
  312SOL     OW 7462   3.131   0.702   0.182
  312SOL    HW1 7463   3.175   0.649   0.109
  312SOL    HW2 7464   3.185   0.696   0.265
  313SOL     OW 7465   1.507   5.139   0.712
  313SOL    HW1 7466   1.472   5.229   0.684
  313SOL    HW2 7467   1.591   5.152   0.765
  314SOL     OW 7468   5.837   1.060   0.470
  314SOL    HW1 7469   5.814   1.112   0.387
  314SOL    HW2 7470   5.837   0.963   0.449
  315SOL     OW 7471   1.737   2.508   0.245
  315SOL    HW1 7472   1.683   2.424   0.250
  315SOL    HW2 7473   1.708   2.562   0.166
  316SOL     OW 7474   4.483   0.359   1.650
  316SOL    HW1 7475   4.461   0.299   1.727
  316SOL    HW2 7476   4.476   0.454   1.679
  317SOL     OW 7477   3.753   0.716   5.138
  317SOL    HW1 7478   3.789   0.695   5.047
  317SOL    HW2 7479   3.821   0.691   5.207
  318SOL     OW 7480   4.853   4.431   6.383
  318SOL    HW1 7481   4.897   4.502   6.328
  318SOL    HW2 7482   4.839   4.349   6.328
  319SOL     OW 7483   5.045   6.470   6.803
  319SOL    HW1 7484   5.092   6.382   6.794
  319SOL    HW2 7485   5.012   0.024   6.713
  320SOL     OW 7486   3.172   0.154   0.732
  320SOL    HW1 7487   3.147   0.246   0.700
  320SOL    HW2 7488   3.097   0.091   0.712
  321SOL     OW 7489   5.981   4.939   6.801
  321SOL    HW1 7490   5.914   5.013   6.796
  321SOL    HW2 7491   5.951   4.863   6.743
  322SOL     OW 7492   5.847   1.336   6.395
  322SOL    HW1 7493   5.877   1.267   6.329
  322SOL    HW2 7494   5.885   1.314   6.485
  323SOL     OW 7495   4.118   0.365   7.098
  323SOL    HW1 7496   4.197   0.361   7.036
  323SOL    HW2 7497   4.072   0.277   7.099
  324SOL     OW 7498   3.838   5.670   1.737
  324SOL    HW1 7499   3.889   5.699   1.817
  324SOL    HW2 7500   3.795   5.581   1.755
  325SOL     OW 7501   2.928   3.213   0.140
  325SOL    HW1 7502   2.991   3.264   0.082
  325SOL    HW2 7503   2.840   3.260   0.143
  326SOL     OW 7504   0.396   3.927   0.217
  326SOL    HW1 7505   0.381   4.000   0.150
  326SOL    HW2 7506   0.487   3.935   0.255
  327SOL     OW 7507   3.817   0.805   1.279
  327SOL    HW1 7508   3.749   0.762   1.338
  327SOL    HW2 7509   3.881   0.858   1.335
  328SOL     OW 7510   4.368   5.596   1.577
  328SOL    HW1 7511   4.443   5.569   1.516
  328SOL    HW2 7512   4.405   5.623   1.666
  329SOL     OW 7513   4.591   1.120   5.947
  329SOL    HW1 7514   4.654   1.198   5.950
  329SOL    HW2 7515   4.501   1.151   5.918
  330SOL     OW 7516   5.186   5.951   1.821
  330SOL    HW1 7517   5.231   5.865   1.844
  330SOL    HW2 7518   5.094   5.952   1.860
  331SOL     OW 7519   6.269   5.353   6.378
  331SOL    HW1 7520   6.271   5.328   6.475
  331SOL    HW2 7521   6.265   5.452   6.368
  332SOL     OW 7522   5.027   3.060   6.991
  332SOL    HW1 7523   4.998   2.964   7.001
  332SOL    HW2 7524   4.948   3.120   7.000
  333SOL     OW 7525   5.533   3.558   5.330
  333SOL    HW1 7526   5.449   3.613   5.332
  333SOL    HW2 7527   5.561   3.544   5.235
  334SOL     OW 7528   3.531   0.168   6.555
  334SOL    HW1 7529   3.626   0.152   6.531
  334SOL    HW2 7530   3.508   0.264   6.540
  335SOL     OW 7531   4.255   0.267   6.340
  335SOL    HW1 7532   4.296   0.322   6.267
  335SOL    HW2 7533   4.155   0.274   6.335
  336SOL     OW 7534   2.871   2.257   6.264
  336SOL    HW1 7535   2.830   2.184   6.209
  336SOL    HW2 7536   2.929   2.217   6.335
  337SOL     OW 7537   4.208   2.191   0.834
  337SOL    HW1 7538   4.195   2.202   0.933
  337SOL    HW2 7539   4.292   2.238   0.806
  338SOL     OW 7540   4.800   2.404   6.802
  338SOL    HW1 7541   4.760   2.375   6.714
  338SOL    HW2 7542   4.898   2.421   6.790
  339SOL     OW 7543   3.251   2.539   0.035
  339SOL    HW1 7544   3.162   2.584   0.040
  339SOL    HW2 7545   3.281   2.513   0.127
  340SOL     OW 7546   5.122   5.733   6.825
  340SOL    HW1 7547   5.024   5.748   6.838
  340SOL    HW2 7548   5.137   5.682   6.740
  341SOL     OW 7549   2.729   0.042   6.968
  341SOL    HW1 7550   2.671   0.122   6.952
  341SOL    HW2 7551   2.800   0.038   6.898
  342SOL     OW 7552   5.397   1.678   6.142
  342SOL    HW1 7553   5.310   1.630   6.156
  342SOL    HW2 7554   5.458   1.620   6.088
  343SOL     OW 7555   6.565   0.095   1.219
  343SOL    HW1 7556   0.079   0.111   1.242
  343SOL    HW2 7557   6.508   0.119   1.298
  344SOL     OW 7558   4.293   2.010   5.283
  344SOL    HW1 7559   4.297   2.050   5.192
  344SOL    HW2 7560   4.291   2.082   5.352
  345SOL     OW 7561   1.181   1.710   1.381
  345SOL    HW1 7562   1.254   1.651   1.417
  345SOL    HW2 7563   1.102   1.705   1.441
  346SOL     OW 7564   3.154   1.977   0.566
  346SOL    HW1 7565   3.225   1.907   0.561
  346SOL    HW2 7566   3.169   2.034   0.646
  347SOL     OW 7567   1.190   3.836   1.525
  347SOL    HW1 7568   1.237   3.808   1.608
  347SOL    HW2 7569   1.151   3.756   1.480
  348SOL     OW 7570   1.436   4.001   0.516
  348SOL    HW1 7571   1.394   4.081   0.559
  348SOL    HW2 7572   1.414   3.919   0.569
  349SOL     OW 7573   1.858   3.009   0.136
  349SOL    HW1 7574   1.853   2.933   0.071
  349SOL    HW2 7575   1.768   3.049   0.147
  350SOL     OW 7576   2.154   4.395   6.609
  350SOL    HW1 7577   2.198   4.315   6.651
  350SOL    HW2 7578   2.151   4.382   6.510
  351SOL     OW 7579   5.756   2.623   6.246
  351SOL    HW1 7580   5.668   2.607   6.201
  351SOL    HW2 7581   5.788   2.716   6.225
  352SOL     OW 7582   6.445   1.767   6.574
  352SOL    HW1 7583   6.510   1.818   6.631
  352SOL    HW2 7584   6.483   1.757   6.482
  353SOL     OW 7585   0.853   1.586   0.450
  353SOL    HW1 7586   0.807   1.533   0.522
  353SOL    HW2 7587   0.789   1.654   0.414
  354SOL     OW 7588   0.841   3.580   6.530
  354SOL    HW1 7589   0.804   3.599   6.621
  354SOL    HW2 7590   0.830   3.483   6.509
  355SOL     OW 7591   6.496   3.062   1.505
  355SOL    HW1 7592   6.484   3.118   1.586
  355SOL    HW2 7593   0.006   3.021   1.505
  356SOL     OW 7594   1.316   2.719   7.154
  356SOL    HW1 7595   1.376   2.767   7.090
  356SOL    HW2 7596   1.223   2.719   7.119
  357SOL     OW 7597   4.659   5.352   0.110
  357SOL    HW1 7598   4.598   5.289   0.062
  357SOL    HW2 7599   4.717   5.301   0.173
  358SOL     OW 7600   4.969   1.482   1.317
  358SOL    HW1 7601   5.002   1.392   1.289
  358SOL    HW2 7602   4.882   1.472   1.365
  359SOL     OW 7603   2.828   4.254   0.566
  359SOL    HW1 7604   2.766   4.235   0.489
  359SOL    HW2 7605   2.815   4.184   0.637
  360SOL     OW 7606   2.578   3.530   6.138
  360SOL    HW1 7607   2.610   3.612   6.089
  360SOL    HW2 7608   2.479   3.536   6.152
  361SOL     OW 7609   6.181   4.276   5.698
  361SOL    HW1 7610   6.235   4.304   5.619
  361SOL    HW2 7611   6.084   4.295   5.681
  362SOL     OW 7612   4.100   0.741   6.442
  362SOL    HW1 7613   4.014   0.690   6.442
  362SOL    HW2 7614   4.081   0.838   6.425
  363SOL     OW 7615   0.313   3.713   5.489
  363SOL    HW1 7616   0.345   3.618   5.492
  363SOL    HW2 7617   0.371   3.765   5.426
  364SOL     OW 7618   5.918   0.584   0.304
  364SOL    HW1 7619   5.894   0.508   0.243
  364SOL    HW2 7620   6.017   0.598   0.301
  365SOL     OW 7621   3.166   3.681   1.050
  365SOL    HW1 7622   3.148   3.640   0.961
  365SOL    HW2 7623   3.261   3.666   1.075
  366SOL     OW 7624   5.731   5.216   6.107
  366SOL    HW1 7625   5.771   5.308   6.113
  366SOL    HW2 7626   5.669   5.212   6.029
  367SOL     OW 7627   4.755   1.961   6.425
  367SOL    HW1 7628   4.810   1.890   6.381
  367SOL    HW2 7629   4.804   1.997   6.504
  368SOL     OW 7630   2.138   1.261   5.986
  368SOL    HW1 7631   2.152   1.219   6.075
  368SOL    HW2 7632   2.094   1.195   5.925
  369SOL     OW 7633   4.181   4.582   0.323
  369SOL    HW1 7634   4.264   4.560   0.273
  369SOL    HW2 7635   4.122   4.641   0.267
  370SOL     OW 7636   5.879   3.190   0.369
  370SOL    HW1 7637   5.812   3.264   0.370
  370SOL    HW2 7638   5.940   3.202   0.291
  371SOL     OW 7639   2.232   0.759   5.437
  371SOL    HW1 7640   2.326   0.728   5.453
  371SOL    HW2 7641   2.180   0.688   5.390
  372SOL     OW 7642   0.616   4.006   6.035
  372SOL    HW1 7643   0.646   3.911   6.037
  372SOL    HW2 7644   0.576   4.026   5.945
  373SOL     OW 7645   3.108   4.532   1.128
  373SOL    HW1 7646   3.126   4.439   1.158
  373SOL    HW2 7647   3.013   4.556   1.149
  374SOL     OW 7648   2.641   2.753   7.306
  374SOL    HW1 7649   2.648   2.850   7.282
  374SOL    HW2 7650   2.600   2.744   7.396
  375SOL     OW 7651   5.295   0.491   1.411
  375SOL    HW1 7652   5.345   0.432   1.475
  375SOL    HW2 7653   5.237   0.435   1.353
  376SOL     OW 7654   5.136   1.795   0.102
  376SOL    HW1 7655   5.057   1.771   0.159
  376SOL    HW2 7656   5.105   1.809   0.007
  377SOL     OW 7657   2.489   3.145   6.236
  377SOL    HW1 7658   2.449   3.178   6.321
  377SOL    HW2 7659   2.585   3.173   6.231
  378SOL     OW 7660   4.771   0.708   6.478
  378SOL    HW1 7661   4.817   0.773   6.538
  378SOL    HW2 7662   4.688   0.749   6.442
  379SOL     OW 7663   4.311   0.986   0.480
  379SOL    HW1 7664   4.326   1.075   0.524
  379SOL    HW2 7665   4.371   0.979   0.400
  380SOL     OW 7666   3.500   5.872   5.969
  380SOL    HW1 7667   3.408   5.913   5.971
  380SOL    HW2 7668   3.557   5.914   6.039
  381SOL     OW 7669   5.508   2.116   0.642
  381SOL    HW1 7670   5.493   2.214   0.656
  381SOL    HW2 7671   5.532   2.099   0.546
  382SOL     OW 7672   0.991   2.302   0.755
  382SOL    HW1 7673   0.994   2.243   0.836
  382SOL    HW2 7674   1.075   2.289   0.702
  383SOL     OW 7675   5.386   0.116   0.061
  383SOL    HW1 7676   5.434   0.067   0.134
  383SOL    HW2 7677   5.328   0.186   0.102
  384SOL     OW 7678   6.502   2.408   1.001
  384SOL    HW1 7679   6.470   2.352   1.078
  384SOL    HW2 7680   0.009   2.375   0.971
  385SOL     OW 7681   4.931   2.797   6.967
  385SOL    HW1 7682   4.855   2.739   6.995
  385SOL    HW2 7683   4.933   2.803   6.867
  386SOL     OW 7684   1.248   4.300   1.718
  386SOL    HW1 7685   1.221   4.218   1.668
  386SOL    HW2 7686   1.184   4.374   1.697
  387SOL     OW 7687   4.500   4.218   1.529
  387SOL    HW1 7688   4.414   4.168   1.532
  387SOL    HW2 7689   4.575   4.156   1.555
  388SOL     OW 7690   2.687   2.703   6.381
  388SOL    HW1 7691   2.685   2.604   6.378
  388SOL    HW2 7692   2.594   2.739   6.385
  389SOL     OW 7693   5.463   2.387   0.663
  389SOL    HW1 7694   5.379   2.407   0.714
  389SOL    HW2 7695   5.464   2.440   0.578
  390SOL     OW 7696   2.756   2.019   6.491
  390SOL    HW1 7697   2.842   2.069   6.480
  390SOL    HW2 7698   2.686   2.081   6.526
  391SOL     OW 7699   5.132   2.244   0.029
  391SOL    HW1 7700   5.063   2.250   7.371
  391SOL    HW2 7701   5.156   2.336   0.059
  392SOL     OW 7702   3.696   2.212   5.721
  392SOL    HW1 7703   3.598   2.204   5.699
  392SOL    HW2 7704   3.725   2.129   5.770
  393SOL     OW 7705   0.281   2.612   1.637
  393SOL    HW1 7706   0.281   2.637   1.734
  393SOL    HW2 7707   0.247   2.518   1.627
  394SOL     OW 7708   6.304   2.562   0.069
  394SOL    HW1 7709   6.326   2.624   7.408
  394SOL    HW2 7710   6.263   2.478   0.033
  395SOL     OW 7711   4.641   1.666   1.192
  395SOL    HW1 7712   4.688   1.661   1.281
  395SOL    HW2 7713   4.644   1.576   1.149
  396SOL     OW 7714   6.033   3.776   0.593
  396SOL    HW1 7715   6.078   3.800   0.506
  396SOL    HW2 7716   6.050   3.848   0.660
  397SOL     OW 7717   0.837   1.874   0.132
  397SOL    HW1 7718   0.800   1.905   0.045
  397SOL    HW2 7719   0.934   1.853   0.122
  398SOL     OW 7720   5.658   5.066   0.801
  398SOL    HW1 7721   5.649   5.132   0.876
  398SOL    HW2 7722   5.753   5.037   0.793
  399SOL     OW 7723   0.859   5.908   6.430
  399SOL    HW1 7724   0.939   5.892   6.489
  399SOL    HW2 7725   0.776   5.904   6.485
  400SOL     OW 7726   4.618   0.699   0.545
  400SOL    HW1 7727   4.521   0.717   0.563
  400SOL    HW2 7728   4.643   0.735   0.456
  401SOL     OW 7729   3.702   2.184   1.055
  401SOL    HW1 7730   3.795   2.148   1.056
  401SOL    HW2 7731   3.701   2.277   1.091
  402SOL     OW 7732   2.748   1.591   6.482
  402SOL    HW1 7733   2.773   1.592   6.386
  402SOL    HW2 7734   2.691   1.670   6.503
  403SOL     OW 7735   0.925   5.553   1.254
  403SOL    HW1 7736   0.834   5.564   1.215
  403SOL    HW2 7737   0.927   5.594   1.346
  404SOL     OW 7738   3.517   6.200   0.561
  404SOL    HW1 7739   3.429   6.242   0.581
  404SOL    HW2 7740   3.586   6.271   0.549
  405SOL     OW 7741   1.710   3.327   6.245
  405SOL    HW1 7742   1.645   3.346   6.319
  405SOL    HW2 7743   1.709   3.230   6.223
  406SOL     OW 7744   4.117   4.218   1.102
  406SOL    HW1 7745   4.132   4.289   1.033
  406SOL    HW2 7746   4.203   4.197   1.148
  407SOL     OW 7747   0.111   1.886   0.837
  407SOL    HW1 7748   0.120   1.923   0.745
  407SOL    HW2 7749   0.048   1.808   0.836
  408SOL     OW 7750   5.128   0.120   6.277
  408SOL    HW1 7751   5.080   0.113   6.364
  408SOL    HW2 7752   5.132   0.030   6.234
  409SOL     OW 7753   3.975   6.375   6.293
  409SOL    HW1 7754   4.070   6.366   6.263
  409SOL    HW2 7755   3.948   6.471   6.293
  410SOL     OW 7756   1.716   3.728   0.974
  410SOL    HW1 7757   1.701   3.790   0.897
  410SOL    HW2 7758   1.732   3.635   0.940
  411SOL     OW 7759   4.009   1.883   0.912
  411SOL    HW1 7760   4.069   1.903   0.834
  411SOL    HW2 7761   3.923   1.845   0.878
  412SOL     OW 7762   5.952   3.020   0.564
  412SOL    HW1 7763   5.921   3.082   0.492
  412SOL    HW2 7764   5.872   2.982   0.611
  413SOL     OW 7765   4.074   4.374   7.150
  413SOL    HW1 7766   4.023   4.327   7.077
  413SOL    HW2 7767   4.110   4.460   7.115
  414SOL     OW 7768   4.878   0.740   1.382
  414SOL    HW1 7769   4.967   0.779   1.359
  414SOL    HW2 7770   4.809   0.813   1.383
  415SOL     OW 7771   5.112   4.655   7.247
  415SOL    HW1 7772   5.146   4.703   7.166
  415SOL    HW2 7773   5.018   4.624   7.230
  416SOL     OW 7774   1.278   5.148   6.703
  416SOL    HW1 7775   1.327   5.082   6.647
  416SOL    HW2 7776   1.343   5.206   6.751
  417SOL     OW 7777   0.862   3.553   2.015
  417SOL    HW1 7778   0.929   3.577   2.086
  417SOL    HW2 7779   0.821   3.465   2.037
  418SOL     OW 7780   3.793   0.764   0.821
  418SOL    HW1 7781   3.694   0.758   0.831
  418SOL    HW2 7782   3.831   0.819   0.895
  419SOL     OW 7783   5.219   3.036   1.047
  419SOL    HW1 7784   5.268   3.018   1.132
  419SOL    HW2 7785   5.128   2.997   1.052
  420SOL     OW 7786   0.288   0.216   0.042
  420SOL    HW1 7787   0.195   0.178   0.043
  420SOL    HW2 7788   0.316   0.236   0.136
  421SOL     OW 7789   5.543   0.040   6.142
  421SOL    HW1 7790   5.490   0.106   6.197
  421SOL    HW2 7791   5.598   6.459   6.202
  422SOL     OW 7792   1.245   2.874   6.699
  422SOL    HW1 7793   1.169   2.925   6.739
  422SOL    HW2 7794   1.322   2.935   6.683
  423SOL     OW 7795   4.639   6.184   6.473
  423SOL    HW1 7796   4.716   6.185   6.409
  423SOL    HW2 7797   4.582   6.104   6.456
  424SOL     OW 7798   3.281   4.980   6.232
  424SOL    HW1 7799   3.311   4.986   6.137
  424SOL    HW2 7800   3.240   5.067   6.260
  425SOL     OW 7801   4.073   4.920   0.879
  425SOL    HW1 7802   3.982   4.910   0.840
  425SOL    HW2 7803   4.098   5.017   0.881
  426SOL     OW 7804   1.724   1.424   1.251
  426SOL    HW1 7805   1.810   1.460   1.215
  426SOL    HW2 7806   1.728   1.420   1.351
  427SOL     OW 7807   3.100   3.618   6.015
  427SOL    HW1 7808   3.132   3.571   6.097
  427SOL    HW2 7809   3.113   3.717   6.025
  428SOL     OW 7810   6.013   2.374   0.400
  428SOL    HW1 7811   6.053   2.292   0.358
  428SOL    HW2 7812   6.051   2.456   0.356
  429SOL     OW 7813   4.780   2.244   0.763
  429SOL    HW1 7814   4.728   2.305   0.704
  429SOL    HW2 7815   4.741   2.246   0.855
  430SOL     OW 7816   5.892   3.931   0.019
  430SOL    HW1 7817   5.862   3.836   0.016
  430SOL    HW2 7818   5.957   3.948   7.360
  431SOL     OW 7819   4.210   1.936   0.727
  431SOL    HW1 7820   4.229   1.945   0.629
  431SOL    HW2 7821   4.215   2.026   0.770
  432SOL     OW 7822   4.248   2.816   1.169
  432SOL    HW1 7823   4.203   2.788   1.253
  432SOL    HW2 7824   4.185   2.870   1.113
  433SOL     OW 7825   0.922   0.233   0.925
  433SOL    HW1 7826   0.996   0.294   0.899
  433SOL    HW2 7827   0.891   0.254   1.018
  434SOL     OW 7828   6.007   1.279   7.288
  434SOL    HW1 7829   6.075   1.247   7.223
  434SOL    HW2 7830   5.926   1.221   7.282
  435SOL     OW 7831   2.620   2.793   5.979
  435SOL    HW1 7832   2.705   2.777   6.029
  435SOL    HW2 7833   2.627   2.878   5.927
  436SOL     OW 7834   3.898   0.913   1.030
  436SOL    HW1 7835   3.997   0.899   1.035
  436SOL    HW2 7836   3.857   0.886   1.116
  437SOL     OW 7837   6.206   6.333   6.666
  437SOL    HW1 7838   6.248   6.404   6.609
  437SOL    HW2 7839   6.124   6.298   6.621
  438SOL     OW 7840   3.576   0.527   0.154
  438SOL    HW1 7841   3.657   0.483   0.114
  438SOL    HW2 7842   3.563   0.617   0.113
  439SOL     OW 7843   0.753   4.639   0.981
  439SOL    HW1 7844   0.853   4.650   0.980
  439SOL    HW2 7845   0.717   4.670   1.069
  440SOL     OW 7846   1.392   1.054   6.881
  440SOL    HW1 7847   1.318   1.118   6.900
  440SOL    HW2 7848   1.480   1.103   6.881
  441SOL     OW 7849   4.481   2.142   0.604
  441SOL    HW1 7850   4.453   2.214   0.668
  441SOL    HW2 7851   4.400   2.096   0.568
  442SOL     OW 7852   1.889   2.801   0.459
  442SOL    HW1 7853   1.958   2.850   0.405
  442SOL    HW2 7854   1.928   2.715   0.491
  443SOL     OW 7855   4.853   6.106   1.403
  443SOL    HW1 7856   4.792   6.184   1.388
  443SOL    HW2 7857   4.848   6.077   1.499
  444SOL     OW 7858   1.164   2.455   5.621
  444SOL    HW1 7859   1.168   2.520   5.545
  444SOL    HW2 7860   1.071   2.450   5.657
  445SOL     OW 7861   5.536   6.024   1.242
  445SOL    HW1 7862   5.541   5.930   1.209
  445SOL    HW2 7863   5.526   6.086   1.163
  446SOL     OW 7864   5.555   5.566   5.536
  446SOL    HW1 7865   5.546   5.663   5.560
  446SOL    HW2 7866   5.526   5.552   5.442
  447SOL     OW 7867   2.754   5.880   6.672
  447SOL    HW1 7868   2.794   5.814   6.736
  447SOL    HW2 7869   2.749   5.969   6.716
  448SOL     OW 7870   3.085   2.872   6.608
  448SOL    HW1 7871   3.101   2.938   6.682
  448SOL    HW2 7872   2.987   2.851   6.603
  449SOL     OW 7873   1.794   1.042   0.949
  449SOL    HW1 7874   1.817   1.066   0.854
  449SOL    HW2 7875   1.736   1.113   0.988
  450SOL     OW 7876   6.079   5.846   0.375
  450SOL    HW1 7877   6.086   5.864   0.474
  450SOL    HW2 7878   5.994   5.798   0.356
  451SOL     OW 7879   2.919   0.012   6.772
  451SOL    HW1 7880   3.010   6.463   6.804
  451SOL    HW2 7881   2.889   6.421   6.704
  452SOL     OW 7882   5.896   4.729   6.638
  452SOL    HW1 7883   5.841   4.695   6.561
  452SOL    HW2 7884   5.870   4.680   6.721
  453SOL     OW 7885   2.809   4.000   1.399
  453SOL    HW1 7886   2.823   3.988   1.301
  453SOL    HW2 7887   2.721   3.961   1.426
  454SOL     OW 7888   3.797   1.602   1.865
  454SOL    HW1 7889   3.701   1.623   1.884
  454SOL    HW2 7890   3.822   1.516   1.910
  455SOL     OW 7891   1.360   0.800   6.965
  455SOL    HW1 7892   1.381   0.894   6.938
  455SOL    HW2 7893   1.349   0.743   6.883
  456SOL     OW 7894   5.811   3.124   5.824
  456SOL    HW1 7895   5.768   3.195   5.768
  456SOL    HW2 7896   5.820   3.157   5.918
  457SOL     OW 7897   2.702   0.685   0.372
  457SOL    HW1 7898   2.681   0.639   0.458
  457SOL    HW2 7899   2.773   0.634   0.324
  458SOL     OW 7900   0.318   4.438   0.642
  458SOL    HW1 7901   0.384   4.375   0.683
  458SOL    HW2 7902   0.336   4.531   0.673
  459SOL     OW 7903   0.523   2.318   0.538
  459SOL    HW1 7904   0.623   2.317   0.530
  459SOL    HW2 7905   0.490   2.225   0.552
  460SOL     OW 7906   0.654   3.900   0.311
  460SOL    HW1 7907   0.704   3.917   0.226
  460SOL    HW2 7908   0.681   3.811   0.348
  461SOL     OW 7909   6.412   2.163   0.288
  461SOL    HW1 7910   6.424   2.064   0.290
  461SOL    HW2 7911   6.444   2.198   0.199
  462SOL     OW 7912   4.890   0.954   2.046
  462SOL    HW1 7913   4.960   0.891   2.079
  462SOL    HW2 7914   4.804   0.938   2.095
  463SOL     OW 7915   1.056   4.894   6.384
  463SOL    HW1 7916   1.108   4.813   6.412
  463SOL    HW2 7917   1.018   4.939   6.465
  464SOL     OW 7918   3.209   2.268   7.376
  464SOL    HW1 7919   3.216   2.365   7.400
  464SOL    HW2 7920   3.295   2.238   7.334
  465SOL     OW 7921   0.129   1.534   0.535
  465SOL    HW1 7922   0.072   1.453   0.526
  465SOL    HW2 7923   0.162   1.542   0.629
  466SOL     OW 7924   5.439   3.473   5.650
  466SOL    HW1 7925   5.528   3.434   5.676
  466SOL    HW2 7926   5.370   3.401   5.650
  467SOL     OW 7927   4.931   3.052   6.393
  467SOL    HW1 7928   4.863   3.085   6.327
  467SOL    HW2 7929   5.016   3.028   6.345
  468SOL     OW 7930   0.687   5.618   1.120
  468SOL    HW1 7931   0.677   5.710   1.158
  468SOL    HW2 7932   0.597   5.580   1.101
  469SOL     OW 7933   4.657   2.510   6.389
  469SOL    HW1 7934   4.741   2.558   6.364
  469SOL    HW2 7935   4.601   2.494   6.308
  470SOL     OW 7936   0.992   2.159   0.985
  470SOL    HW1 7937   1.069   2.096   0.991
  470SOL    HW2 7938   0.965   2.187   1.077
  471SOL     OW 7939   0.222   2.413   1.186
  471SOL    HW1 7940   0.183   2.342   1.245
  471SOL    HW2 7941   0.221   2.382   1.091
  472SOL     OW 7942   6.337   2.062   7.245
  472SOL    HW1 7943   6.328   1.976   7.195
  472SOL    HW2 7944   6.265   2.068   7.314
  473SOL     OW 7945   3.494   0.385   6.215
  473SOL    HW1 7946   3.547   0.400   6.298
  473SOL    HW2 7947   3.556   0.378   6.136
  474SOL     OW 7948   3.353   1.287   5.842
  474SOL    HW1 7949   3.341   1.385   5.828
  474SOL    HW2 7950   3.374   1.269   5.939
  475SOL     OW 7951   6.280   5.773   5.844
  475SOL    HW1 7952   6.281   5.865   5.805
  475SOL    HW2 7953   6.334   5.773   5.928
  476SOL     OW 7954   0.370   4.453   1.725
  476SOL    HW1 7955   0.444   4.515   1.752
  476SOL    HW2 7956   0.314   4.432   1.806
  477SOL     OW 7957   3.068   0.770   1.104
  477SOL    HW1 7958   3.163   0.791   1.080
  477SOL    HW2 7959   3.061   0.757   1.202
  478SOL     OW 7960   1.482   6.313   0.362
  478SOL    HW1 7961   1.384   6.315   0.383
  478SOL    HW2 7962   1.495   6.323   0.263
  479SOL     OW 7963   2.591   0.385   6.369
  479SOL    HW1 7964   2.496   0.398   6.341
  479SOL    HW2 7965   2.647   0.370   6.288
  480SOL     OW 7966   1.307   2.869   1.988
  480SOL    HW1 7967   1.214   2.887   2.020
  480SOL    HW2 7968   1.325   2.770   1.992
  481SOL     OW 7969   5.930   5.616   6.945
  481SOL    HW1 7970   6.005   5.575   6.892
  481SOL    HW2 7971   5.843   5.577   6.915
  482SOL     OW 7972   5.428   3.524   7.147
  482SOL    HW1 7973   5.457   3.429   7.143
  482SOL    HW2 7974   5.425   3.562   7.055
  483SOL     OW 7975   3.749   4.863   7.068
  483SOL    HW1 7976   3.667   4.866   7.124
  483SOL    HW2 7977   3.804   4.945   7.086
  484SOL     OW 7978   4.295   3.711   5.067
  484SOL    HW1 7979   4.203   3.737   5.096
  484SOL    HW2 7980   4.351   3.793   5.053
  485SOL     OW 7981   1.228   5.059   1.798
  485SOL    HW1 7982   1.135   5.045   1.764
  485SOL    HW2 7983   1.231   5.141   1.855
  486SOL     OW 7984   0.874   0.742   0.781
  486SOL    HW1 7985   0.861   0.839   0.757
  486SOL    HW2 7986   0.904   0.735   0.876
  487SOL     OW 7987   1.264   5.357   5.127
  487SOL    HW1 7988   1.236   5.409   5.208
  487SOL    HW2 7989   1.326   5.413   5.072
  488SOL     OW 7990   5.846   4.510   7.231
  488SOL    HW1 7991   5.935   4.473   7.207
  488SOL    HW2 7992   5.852   4.610   7.235
  489SOL     OW 7993   3.539   1.732   0.427
  489SOL    HW1 7994   3.622   1.695   0.469
  489SOL    HW2 7995   3.553   1.741   0.328
  490SOL     OW 7996   5.820   2.875   6.142
  490SOL    HW1 7997   5.850   2.848   6.050
  490SOL    HW2 7998   5.732   2.923   6.135
  491SOL     OW 7999   6.568   5.313   6.674
  491SOL    HW1 8000   0.031   5.239   6.623
  491SOL    HW2 8001   0.012   5.306   6.770
  492SOL     OW 8002   0.105   3.502   0.579
  492SOL    HW1 8003   0.097   3.499   0.679
  492SOL    HW2 8004   0.201   3.495   0.553
  493SOL     OW 8005   5.175   5.868   5.940
  493SOL    HW1 8006   5.088   5.889   5.895
  493SOL    HW2 8007   5.249   5.867   5.873
  494SOL     OW 8008   4.333   1.197   5.830
  494SOL    HW1 8009   4.294   1.135   5.761
  494SOL    HW2 8010   4.271   1.203   5.908
  495SOL     OW 8011   2.313   4.414   0.225
  495SOL    HW1 8012   2.301   4.318   0.249
  495SOL    HW2 8013   2.392   4.451   0.274
  496SOL     OW 8014   3.731   2.602   5.853
  496SOL    HW1 8015   3.655   2.573   5.911
  496SOL    HW2 8016   3.793   2.660   5.906
  497SOL     OW 8017   1.642   5.967   5.806
  497SOL    HW1 8018   1.666   6.010   5.719
  497SOL    HW2 8019   1.563   6.015   5.846
  498SOL     OW 8020   5.612   3.876   5.417
  498SOL    HW1 8021   5.593   3.919   5.329
  498SOL    HW2 8022   5.709   3.849   5.421
  499SOL     OW 8023   6.076   4.101   7.265
  499SOL    HW1 8024   5.998   4.142   7.218
  499SOL    HW2 8025   6.103   4.159   7.341
  500SOL     OW 8026   5.381   5.918   0.653
  500SOL    HW1 8027   5.448   5.957   0.717
  500SOL    HW2 8028   5.289   5.939   0.686
  501SOL     OW 8029   0.606   5.496   7.375
  501SOL    HW1 8030   0.638   5.406   7.404
  501SOL    HW2 8031   0.512   5.488   7.342
  502SOL     OW 8032   5.952   1.295   0.854
  502SOL    HW1 8033   6.023   1.283   0.923
  502SOL    HW2 8034   5.862   1.285   0.896
  503SOL     OW 8035   6.077   0.453   6.268
  503SOL    HW1 8036   6.090   0.374   6.208
  503SOL    HW2 8037   5.980   0.472   6.278
  504SOL     OW 8038   3.973   6.125   1.295
  504SOL    HW1 8039   4.007   6.216   1.270
  504SOL    HW2 8040   3.874   6.122   1.284
  505SOL     OW 8041   5.064   4.677   1.336
  505SOL    HW1 8042   4.996   4.741   1.299
  505SOL    HW2 8043   5.049   4.665   1.434
  506SOL     OW 8044   1.343   4.667   6.884
  506SOL    HW1 8045   1.246   4.659   6.861
  506SOL    HW2 8046   1.374   4.584   6.929
  507SOL     OW 8047   2.784   5.523   6.263
  507SOL    HW1 8048   2.707   5.507   6.202
  507SOL    HW2 8049   2.820   5.436   6.296
  508SOL     OW 8050   4.511   5.309   7.118
  508SOL    HW1 8051   4.456   5.359   7.052
  508SOL    HW2 8052   4.572   5.245   7.070
  509SOL     OW 8053   6.524   6.321   7.411
  509SOL    HW1 8054   6.540   6.223   0.010
  509SOL    HW2 8055   6.581   6.354   7.335
  510SOL     OW 8056   2.889   5.024   6.396
  510SOL    HW1 8057   2.795   4.990   6.398
  510SOL    HW2 8058   2.888   5.123   6.385
  511SOL     OW 8059   1.286   5.917   0.183
  511SOL    HW1 8060   1.372   5.916   0.234
  511SOL    HW2 8061   1.221   5.978   0.228
  512SOL     OW 8062   5.718   4.221   6.574
  512SOL    HW1 8063   5.709   4.292   6.644
  512SOL    HW2 8064   5.644   4.232   6.507
  513SOL     OW 8065   2.807   5.516   5.739
  513SOL    HW1 8066   2.732   5.559   5.689
  513SOL    HW2 8067   2.835   5.433   5.691
  514SOL     OW 8068   3.918   0.291   5.912
  514SOL    HW1 8069   3.940   0.308   5.816
  514SOL    HW2 8070   3.932   0.194   5.932
  515SOL     OW 8071   1.133   4.502   7.091
  515SOL    HW1 8072   1.223   4.460   7.080
  515SOL    HW2 8073   1.103   4.540   7.004
  516SOL     OW 8074   1.494   0.527   6.014
  516SOL    HW1 8075   1.582   0.483   5.998
  516SOL    HW2 8076   1.502   0.625   5.996
  517SOL     OW 8077   0.661   3.381   7.162
  517SOL    HW1 8078   0.597   3.376   7.238
  517SOL    HW2 8079   0.641   3.308   7.096
  518SOL     OW 8080   1.723   5.526   0.548
  518SOL    HW1 8081   1.631   5.555   0.521
  518SOL    HW2 8082   1.788   5.599   0.526
  519SOL     OW 8083   6.224   1.249   1.793
  519SOL    HW1 8084   6.276   1.317   1.845
  519SOL    HW2 8085   6.168   1.195   1.856
  520SOL     OW 8086   1.483   6.111   1.110
  520SOL    HW1 8087   1.383   6.107   1.099
  520SOL    HW2 8088   1.523   6.161   1.034
  521SOL     OW 8089   6.534   4.438   0.121
  521SOL    HW1 8090   6.490   4.437   0.211
  521SOL    HW2 8091   0.044   4.475   0.128
  522SOL     OW 8092   0.424   0.398   5.866
  522SOL    HW1 8093   0.367   0.460   5.920
  522SOL    HW2 8094   0.378   0.376   5.780
  523SOL     OW 8095   5.000   2.700   1.514
  523SOL    HW1 8096   5.089   2.745   1.506
  523SOL    HW2 8097   5.007   2.622   1.577
  524SOL     OW 8098   3.029   6.231   1.053
  524SOL    HW1 8099   2.942   6.257   1.094
  524SOL    HW2 8100   3.029   6.133   1.034
  525SOL     OW 8101   2.382   4.553   6.582
  525SOL    HW1 8102   2.458   4.530   6.642
  525SOL    HW2 8103   2.303   4.496   6.604
  526SOL     OW 8104   0.231   4.673   6.286
  526SOL    HW1 8105   0.268   4.585   6.256
  526SOL    HW2 8106   0.189   4.662   6.376
  527SOL     OW 8107   2.198   6.341   7.071
  527SOL    HW1 8108   2.245   6.360   7.157
  527SOL    HW2 8109   2.266   6.325   6.999
  528SOL     OW 8110   4.626   5.049   0.826
  528SOL    HW1 8111   4.591   5.133   0.785
  528SOL    HW2 8112   4.601   4.971   0.767
  529SOL     OW 8113   0.887   2.411   1.745
  529SOL    HW1 8114   0.895   2.405   1.844
  529SOL    HW2 8115   0.937   2.335   1.703
  530SOL     OW 8116   3.333   1.775   0.586
  530SOL    HW1 8117   3.290   1.688   0.609
  530SOL    HW2 8118   3.408   1.760   0.522
  531SOL     OW 8119   2.348   2.525   6.056
  531SOL    HW1 8120   2.292   2.608   6.048
  531SOL    HW2 8121   2.428   2.532   5.997
  532SOL     OW 8122   3.440   0.147   0.803
  532SOL    HW1 8123   3.481   0.210   0.738
  532SOL    HW2 8124   3.342   0.139   0.785
  533SOL     OW 8125   1.184   3.448   0.153
  533SOL    HW1 8126   1.248   3.469   0.228
  533SOL    HW2 8127   1.233   3.400   0.080
  534SOL     OW 8128   0.979   4.270   6.566
  534SOL    HW1 8129   0.933   4.229   6.645
  534SOL    HW2 8130   0.931   4.244   6.482
  535SOL     OW 8131   4.479   2.620   5.469
  535SOL    HW1 8132   4.440   2.540   5.515
  535SOL    HW2 8133   4.506   2.595   5.376
  536SOL     OW 8134   5.042   4.471   6.033
  536SOL    HW1 8135   5.042   4.525   6.117
  536SOL    HW2 8136   5.125   4.491   5.980
  537SOL     OW 8137   1.864   1.125   1.753
  537SOL    HW1 8138   1.800   1.147   1.827
  537SOL    HW2 8139   1.923   1.050   1.781
  538SOL     OW 8140   4.662   0.839   6.880
  538SOL    HW1 8141   4.758   0.816   6.890
  538SOL    HW2 8142   4.640   0.916   6.939
  539SOL     OW 8143   1.006   3.878   7.357
  539SOL    HW1 8144   1.067   3.947   7.396
  539SOL    HW2 8145   1.050   3.788   7.362
  540SOL     OW 8146   3.954   3.632   5.961
  540SOL    HW1 8147   4.015   3.590   6.029
  540SOL    HW2 8148   3.879   3.678   6.007
  541SOL     OW 8149   6.479   2.252   0.027
  541SOL    HW1 8150   6.542   2.328   0.013
  541SOL    HW2 8151   6.489   2.187   7.366
  542SOL     OW 8152   5.270   4.421   5.467
  542SOL    HW1 8153   5.206   4.494   5.444
  542SOL    HW2 8154   5.362   4.445   5.435
  543SOL     OW 8155   1.337   3.654   1.192
  543SOL    HW1 8156   1.241   3.642   1.218
  543SOL    HW2 8157   1.356   3.600   1.111
  544SOL     OW 8158   1.412   0.736   7.317
  544SOL    HW1 8159   1.322   0.696   7.295
  544SOL    HW2 8160   1.408   0.835   7.305
  545SOL     OW 8161   4.254   2.061   6.095
  545SOL    HW1 8162   4.187   1.987   6.101
  545SOL    HW2 8163   4.293   2.078   6.186
  546SOL     OW 8164   5.498   2.185   5.938
  546SOL    HW1 8165   5.552   2.136   6.008
  546SOL    HW2 8166   5.404   2.196   5.971
  547SOL     OW 8167   4.369   4.516   6.399
  547SOL    HW1 8168   4.392   4.490   6.305
  547SOL    HW2 8169   4.453   4.519   6.454
  548SOL     OW 8170   1.734   1.361   0.634
  548SOL    HW1 8171   1.761   1.390   0.542
  548SOL    HW2 8172   1.664   1.423   0.670
  549SOL     OW 8173   5.591   2.356   6.885
  549SOL    HW1 8174   5.514   2.323   6.939
  549SOL    HW2 8175   5.641   2.425   6.937
  550SOL     OW 8176   3.195   4.794   7.146
  550SOL    HW1 8177   3.276   4.790   7.088
  550SOL    HW2 8178   3.140   4.711   7.133
  551SOL     OW 8179   1.196   0.648   0.935
  551SOL    HW1 8180   1.116   0.689   0.980
  551SOL    HW2 8181   1.169   0.562   0.893
  552SOL     OW 8182   2.022   5.540   7.026
  552SOL    HW1 8183   1.952   5.489   6.976
  552SOL    HW2 8184   2.054   5.616   6.970
  553SOL     OW 8185   5.893   0.904   0.932
  553SOL    HW1 8186   5.987   0.907   0.898
  553SOL    HW2 8187   5.883   0.968   1.008
  554SOL     OW 8188   5.162   1.161   7.413
  554SOL    HW1 8189   5.120   1.070   7.414
  554SOL    HW2 8190   5.098   1.228   0.038
  555SOL     OW 8191   0.312   5.910   7.372
  555SOL    HW1 8192   0.397   5.857   7.375
  555SOL    HW2 8193   0.302   5.952   7.282
  556SOL     OW 8194   1.121   0.059   5.832
  556SOL    HW1 8195   1.187   0.036   5.903
  556SOL    HW2 8196   1.035   0.089   5.874
  557SOL     OW 8197   6.522   2.008   6.034
  557SOL    HW1 8198   0.017   1.948   6.056
  557SOL    HW2 8199   6.442   1.953   6.012
  558SOL     OW 8200   4.913   6.422   0.080
  558SOL    HW1 8201   4.938   6.458   7.404
  558SOL    HW2 8202   4.954   0.003   0.151
  559SOL     OW 8203   1.777   6.277   0.138
  559SOL    HW1 8204   1.682   6.297   0.113
  559SOL    HW2 8205   1.809   6.344   0.204
  560SOL     OW 8206   4.231   5.985   6.010
  560SOL    HW1 8207   4.275   5.897   5.989
  560SOL    HW2 8208   4.264   6.019   6.098
  561SOL     OW 8209   5.590   5.774   6.486
  561SOL    HW1 8210   5.525   5.779   6.410
  561SOL    HW2 8211   5.545   5.804   6.571
  562SOL     OW 8212   2.928   2.907   0.720
  562SOL    HW1 8213   2.868   2.892   0.798
  562SOL    HW2 8214   2.932   2.825   0.663
  563SOL     OW 8215   2.912   4.277   7.289
  563SOL    HW1 8216   2.894   4.218   7.367
  563SOL    HW2 8217   2.943   4.367   7.321
  564SOL     OW 8218   0.083   4.649   6.528
  564SOL    HW1 8219   0.005   4.613   6.477
  564SOL    HW2 8220   0.054   4.727   6.584
  565SOL     OW 8221   5.330   5.293   1.251
  565SOL    HW1 8222   5.322   5.195   1.268
  565SOL    HW2 8223   5.323   5.310   1.153
  566SOL     OW 8224   3.026   0.366   0.070
  566SOL    HW1 8225   2.974   0.417   0.138
  566SOL    HW2 8226   2.968   0.346   7.406
  567SOL     OW 8227   4.443   6.446   5.966
  567SOL    HW1 8228   4.524   0.023   5.939
  567SOL    HW2 8229   4.360   0.019   5.936
  568SOL     OW 8230   0.703   5.053   6.671
  568SOL    HW1 8231   0.795   5.059   6.633
  568SOL    HW2 8232   0.666   4.961   6.654
  569SOL     OW 8233   5.917   2.782   5.898
  569SOL    HW1 8234   5.915   2.684   5.879
  569SOL    HW2 8235   5.924   2.832   5.812
  570SOL     OW 8236   3.964   4.115   1.493
  570SOL    HW1 8237   3.946   4.196   1.438
  570SOL    HW2 8238   3.910   4.118   1.577
  571SOL     OW 8239   0.884   1.730   5.241
  571SOL    HW1 8240   0.792   1.755   5.211
  571SOL    HW2 8241   0.907   1.639   5.205
  572SOL     OW 8242   3.382   5.842   0.467
  572SOL    HW1 8243   3.381   5.889   0.556
  572SOL    HW2 8244   3.300   5.785   0.458
  573SOL     OW 8245   0.868   0.499   1.176
  573SOL    HW1 8246   0.801   0.425   1.178
  573SOL    HW2 8247   0.960   0.461   1.172
  574SOL     OW 8248   3.970   0.344   5.648
  574SOL    HW1 8249   4.040   0.312   5.585
  574SOL    HW2 8250   3.880   0.340   5.604
  575SOL     OW 8251   0.524   2.064   6.262
  575SOL    HW1 8252   0.539   2.157   6.229
  575SOL    HW2 8253   0.610   2.027   6.298
  576SOL     OW 8254   3.036   0.312   6.459
  576SOL    HW1 8255   3.030   0.226   6.407
  576SOL    HW2 8256   3.126   0.353   6.446
  577SOL     OW 8257   5.942   4.424   6.329
  577SOL    HW1 8258   5.966   4.362   6.404
  577SOL    HW2 8259   5.881   4.496   6.365
  578SOL     OW 8260   4.785   4.785   7.344
  578SOL    HW1 8261   4.796   4.758   0.025
  578SOL    HW2 8262   4.801   4.706   7.285
  579SOL     OW 8263   2.556   5.036   0.196
  579SOL    HW1 8264   2.602   5.089   0.125
  579SOL    HW2 8265   2.536   5.096   0.274
  580SOL     OW 8266   3.611   5.615   0.158
  580SOL    HW1 8267   3.531   5.596   0.102
  580SOL    HW2 8268   3.645   5.530   0.198
  581SOL     OW 8269   3.864   5.924   0.377
  581SOL    HW1 8270   3.848   6.021   0.398
  581SOL    HW2 8271   3.777   5.877   0.370
  582SOL     OW 8272   0.368   1.976   0.061
  582SOL    HW1 8273   0.392   1.908   0.129
  582SOL    HW2 8274   0.333   2.058   0.106
  583SOL     OW 8275   5.679   4.379   0.010
  583SOL    HW1 8276   5.754   4.413   7.368
  583SOL    HW2 8277   5.678   4.279   0.006
  584SOL     OW 8278   5.025   5.148   0.994
  584SOL    HW1 8279   5.026   5.136   1.094
  584SOL    HW2 8280   4.994   5.240   0.972
  585SOL     OW 8281   2.759   5.431   0.079
  585SOL    HW1 8282   2.765   5.484   7.409
  585SOL    HW2 8283   2.691   5.472   0.140
  586SOL     OW 8284   6.492   5.550   5.088
  586SOL    HW1 8285   6.431   5.587   5.018
  586SOL    HW2 8286   6.508   5.453   5.071
  587SOL     OW 8287   1.980   2.302   0.556
  587SOL    HW1 8288   2.006   2.249   0.475
  587SOL    HW2 8289   2.031   2.268   0.636
  588SOL     OW 8290   6.567   1.303   0.523
  588SOL    HW1 8291   0.022   1.216   0.488
  588SOL    HW2 8292   6.474   1.288   0.557
  589SOL     OW 8293   0.144   4.027   6.321
  589SOL    HW1 8294   0.057   3.984   6.345
  589SOL    HW2 8295   0.129   4.123   6.296
  590SOL     OW 8296   1.804   0.068   0.695
  590SOL    HW1 8297   1.892   0.094   0.655
  590SOL    HW2 8298   1.736   0.057   0.622
  591SOL     OW 8299   4.514   1.289   6.660
  591SOL    HW1 8300   4.477   1.212   6.608
  591SOL    HW2 8301   4.450   1.314   6.733
  592SOL     OW 8302   0.159   2.644   6.729
  592SOL    HW1 8303   0.206   2.628   6.642
  592SOL    HW2 8304   0.104   2.564   6.752
  593SOL     OW 8305   6.380   0.707   6.776
  593SOL    HW1 8306   6.422   0.617   6.781
  593SOL    HW2 8307   6.450   0.777   6.790
  594SOL     OW 8308   5.958   5.642   7.221
  594SOL    HW1 8309   5.953   5.633   7.122
  594SOL    HW2 8310   6.048   5.613   7.253
  595SOL     OW 8311   3.321   2.463   0.284
  595SOL    HW1 8312   3.369   2.388   0.331
  595SOL    HW2 8313   3.282   2.525   0.352
  596SOL     OW 8314   0.941   1.704   0.969
  596SOL    HW1 8315   0.978   1.756   0.892
  596SOL    HW2 8316   1.017   1.665   1.022
  597SOL     OW 8317   4.477   5.108   6.532
  597SOL    HW1 8318   4.558   5.166   6.534
  597SOL    HW2 8319   4.483   5.045   6.454
  598SOL     OW 8320   6.274   2.206   6.695
  598SOL    HW1 8321   6.253   2.117   6.655
  598SOL    HW2 8322   6.368   2.206   6.729
  599SOL     OW 8323   5.148   6.351   6.127
  599SOL    HW1 8324   5.196   6.263   6.126
  599SOL    HW2 8325   5.052   6.337   6.105
  600SOL     OW 8326   5.832   3.914   5.869
  600SOL    HW1 8327   5.884   3.893   5.786
  600SOL    HW2 8328   5.888   3.971   5.930
  601SOL     OW 8329   6.122   1.801   7.328
  601SOL    HW1 8330   6.053   1.728   7.328
  601SOL    HW2 8331   6.166   1.805   7.238
  602SOL     OW 8332   1.567   4.110   6.377
  602SOL    HW1 8333   1.627   4.036   6.406
  602SOL    HW2 8334   1.472   4.080   6.383
  603SOL     OW 8335   5.284   1.434   6.662
  603SOL    HW1 8336   5.362   1.480   6.620
  603SOL    HW2 8337   5.312   1.345   6.696
  604SOL     OW 8338   3.046   3.468   7.145
  604SOL    HW1 8339   3.131   3.500   7.105
  604SOL    HW2 8340   2.974   3.536   7.132
  605SOL     OW 8341   3.811   5.117   6.448
  605SOL    HW1 8342   3.720   5.120   6.491
  605SOL    HW2 8343   3.809   5.054   6.370
  606SOL     OW 8344   4.977   4.803   6.910
  606SOL    HW1 8345   4.933   4.853   6.985
  606SOL    HW2 8346   5.075   4.822   6.911
  607SOL     OW 8347   2.022   2.252   6.440
  607SOL    HW1 8348   2.071   2.172   6.474
  607SOL    HW2 8349   2.074   2.295   6.367
  608SOL     OW 8350   1.730   4.576   6.367
  608SOL    HW1 8351   1.822   4.609   6.386
  608SOL    HW2 8352   1.734   4.479   6.340
  609SOL     OW 8353   4.157   5.661   1.422
  609SOL    HW1 8354   4.122   5.755   1.429
  609SOL    HW2 8355   4.230   5.648   1.488
  610SOL     OW 8356   6.290   4.525   0.893
  610SOL    HW1 8357   6.294   4.431   0.927
  610SOL    HW2 8358   6.379   4.551   0.856
  611SOL     OW 8359   2.265   1.204   7.014
  611SOL    HW1 8360   2.330   1.176   7.084
  611SOL    HW2 8361   2.189   1.140   7.010
  612SOL     OW 8362   1.445   5.571   0.480
  612SOL    HW1 8363   1.418   5.529   0.393
  612SOL    HW2 8364   1.376   5.639   0.506
  613SOL     OW 8365   0.207   5.466   6.417
  613SOL    HW1 8366   0.122   5.421   6.392
  613SOL    HW2 8367   0.196   5.565   6.408
  614SOL     OW 8368   3.334   2.771   5.833
  614SOL    HW1 8369   3.266   2.708   5.869
  614SOL    HW2 8370   3.405   2.787   5.901
  615SOL     OW 8371   1.308   4.035   6.406
  615SOL    HW1 8372   1.273   4.073   6.492
  615SOL    HW2 8373   1.260   4.077   6.329
  616SOL     OW 8374   3.962   0.674   1.585
  616SOL    HW1 8375   3.898   0.600   1.608
  616SOL    HW2 8376   4.050   0.656   1.629
  617SOL     OW 8377   1.187   2.344   6.292
  617SOL    HW1 8378   1.133   2.264   6.319
  617SOL    HW2 8379   1.198   2.345   6.192
  618SOL     OW 8380   4.748   1.964   0.827
  618SOL    HW1 8381   4.750   2.057   0.789
  618SOL    HW2 8382   4.805   1.961   0.909
  619SOL     OW 8383   2.173   5.271   7.359
  619SOL    HW1 8384   2.178   5.324   0.030
  619SOL    HW2 8385   2.200   5.329   7.282
  620SOL     OW 8386   1.880   2.003   1.061
  620SOL    HW1 8387   1.880   1.998   1.160
  620SOL    HW2 8388   1.958   2.058   1.030
  621SOL     OW 8389   6.524   2.466   5.288
  621SOL    HW1 8390   0.038   2.465   5.258
  621SOL    HW2 8391   6.504   2.381   5.337
  622SOL     OW 8392   6.143   5.225   5.550
  622SOL    HW1 8393   6.171   5.204   5.456
  622SOL    HW2 8394   6.056   5.180   5.569
  623SOL     OW 8395   6.378   1.440   0.802
  623SOL    HW1 8396   6.300   1.501   0.809
  623SOL    HW2 8397   6.360   1.372   0.731
  624SOL     OW 8398   4.437   0.469   6.738
  624SOL    HW1 8399   4.370   0.541   6.719
  624SOL    HW2 8400   4.460   0.421   6.653
  625SOL     OW 8401   6.189   5.695   6.171
  625SOL    HW1 8402   6.272   5.740   6.137
  625SOL    HW2 8403   6.138   5.657   6.094
  626SOL     OW 8404   3.665   3.516   7.204
  626SOL    HW1 8405   3.751   3.491   7.160
  626SOL    HW2 8406   3.597   3.443   7.189
  627SOL     OW 8407   1.398   6.010   1.639
  627SOL    HW1 8408   1.407   6.040   1.734
  627SOL    HW2 8409   1.448   6.074   1.580
  628SOL     OW 8410   3.803   3.619   0.013
  628SOL    HW1 8411   3.741   3.584   7.358
  628SOL    HW2 8412   3.782   3.715   0.032
  629SOL     OW 8413   6.084   0.772   6.632
  629SOL    HW1 8414   6.019   0.847   6.638
  629SOL    HW2 8415   6.124   0.755   6.722
  630SOL     OW 8416   4.997   0.671   0.801
  630SOL    HW1 8417   5.078   0.712   0.843
  630SOL    HW2 8418   4.923   0.738   0.800
  631SOL     OW 8419   6.464   0.169   1.458
  631SOL    HW1 8420   6.497   0.263   1.466
  631SOL    HW2 8421   6.472   0.124   1.547
  632SOL     OW 8422   3.244   6.231   0.879
  632SOL    HW1 8423   3.307   6.164   0.918
  632SOL    HW2 8424   3.168   6.246   0.942
  633SOL     OW 8425   1.465   3.516   1.391
  633SOL    HW1 8426   1.416   3.562   1.317
  633SOL    HW2 8427   1.476   3.580   1.467
  634SOL     OW 8428   0.725   3.251   1.286
  634SOL    HW1 8429   0.679   3.173   1.328
  634SOL    HW2 8430   0.692   3.264   1.193
  635SOL     OW 8431   3.693   5.993   1.582
  635SOL    HW1 8432   3.787   5.992   1.616
  635SOL    HW2 8433   3.635   6.046   1.644
  636SOL     OW 8434   3.474   2.122   6.081
  636SOL    HW1 8435   3.470   2.072   6.168
  636SOL    HW2 8436   3.455   2.059   6.005
  637SOL     OW 8437   0.514   3.512   0.322
  637SOL    HW1 8438   0.598   3.556   0.351
  637SOL    HW2 8439   0.469   3.569   0.252
  638SOL     OW 8440   1.678   3.280   7.344
  638SOL    HW1 8441   1.638   3.216   7.410
  638SOL    HW2 8442   1.620   3.361   7.338
  639SOL     OW 8443   4.556   0.640   1.188
  639SOL    HW1 8444   4.598   0.558   1.226
  639SOL    HW2 8445   4.626   0.697   1.145
  640SOL     OW 8446   5.077   4.357   5.661
  640SOL    HW1 8447   5.133   4.362   5.578
  640SOL    HW2 8448   5.110   4.423   5.728
  641SOL     OW 8449   1.539   0.331   7.309
  641SOL    HW1 8450   1.629   0.328   7.352
  641SOL    HW2 8451   1.534   0.411   7.248
  642SOL     OW 8452   0.766   4.903   7.123
  642SOL    HW1 8453   0.699   4.942   7.060
  642SOL    HW2 8454   0.849   4.878   7.073
  643SOL     OW 8455   6.093   4.503   6.885
  643SOL    HW1 8456   6.112   4.422   6.830
  643SOL    HW2 8457   6.156   4.577   6.859
  644SOL     OW 8458   0.940   4.892   0.797
  644SOL    HW1 8459   1.034   4.879   0.764
  644SOL    HW2 8460   0.882   4.917   0.720
  645SOL     OW 8461   0.588   1.405   6.797
  645SOL    HW1 8462   0.535   1.325   6.769
  645SOL    HW2 8463   0.535   1.458   6.863
  646SOL     OW 8464   5.005   5.105   7.287
  646SOL    HW1 8465   5.009   5.068   7.379
  646SOL    HW2 8466   5.001   5.205   7.291
  647SOL     OW 8467   4.867   5.627   6.641
  647SOL    HW1 8468   4.853   5.698   6.711
  647SOL    HW2 8469   4.954   5.642   6.595
  648SOL     OW 8470   3.484   0.937   5.993
  648SOL    HW1 8471   3.572   0.971   6.025
  648SOL    HW2 8472   3.416   0.947   6.065
  649SOL     OW 8473   3.496   1.129   6.397
  649SOL    HW1 8474   3.459   1.063   6.331
  649SOL    HW2 8475   3.595   1.129   6.392
  650SOL     OW 8476   3.722   4.097   0.892
  650SOL    HW1 8477   3.647   4.145   0.845
  650SOL    HW2 8478   3.690   4.007   0.921
  651SOL     OW 8479   0.128   4.284   0.917
  651SOL    HW1 8480   0.064   4.257   0.989
  651SOL    HW2 8481   0.165   4.374   0.939
  652SOL     OW 8482   0.548   3.138   1.957
  652SOL    HW1 8483   0.454   3.170   1.966
  652SOL    HW2 8484   0.552   3.061   1.894
  653SOL     OW 8485   4.227   0.637   6.668
  653SOL    HW1 8486   4.283   0.703   6.718
  653SOL    HW2 8487   4.187   0.682   6.588
  654SOL     OW 8488   0.117   6.388   6.559
  654SOL    HW1 8489   0.075   0.003   6.554
  654SOL    HW2 8490   0.214   6.398   6.581
  655SOL     OW 8491   1.477   2.676   6.250
  655SOL    HW1 8492   1.563   2.685   6.300
  655SOL    HW2 8493   1.459   2.579   6.231
  656SOL     OW 8494   1.048   3.334   1.111
  656SOL    HW1 8495   1.064   3.249   1.162
  656SOL    HW2 8496   1.113   3.339   1.035
  657SOL     OW 8497   4.402   6.105   1.155
  657SOL    HW1 8498   4.402   6.006   1.137
  657SOL    HW2 8499   4.427   6.154   1.072
  658SOL     OW 8500   2.354   2.030   1.035
  658SOL    HW1 8501   2.372   1.972   0.956
  658SOL    HW2 8502   2.384   1.983   1.118
  659SOL     OW 8503   1.849   0.774   0.913
  659SOL    HW1 8504   1.820   0.867   0.934
  659SOL    HW2 8505   1.949   0.768   0.914
  660SOL     OW 8506   0.546   4.653   0.466
  660SOL    HW1 8507   0.572   4.632   0.560
  660SOL    HW2 8508   0.610   4.719   0.428
  661SOL     OW 8509   0.522   5.312   0.680
  661SOL    HW1 8510   0.557   5.243   0.617
  661SOL    HW2 8511   0.545   5.403   0.647
  662SOL     OW 8512   3.781   3.542   6.877
  662SOL    HW1 8513   3.750   3.634   6.902
  662SOL    HW2 8514   3.837   3.505   6.951
  663SOL     OW 8515   5.253   6.101   6.076
  663SOL    HW1 8516   5.330   6.118   6.014
  663SOL    HW2 8517   5.207   6.017   6.050
  664SOL     OW 8518   5.416   5.880   7.149
  664SOL    HW1 8519   5.475   5.954   7.115
  664SOL    HW2 8520   5.416   5.881   7.249
  665SOL     OW 8521   6.327   2.212   6.085
  665SOL    HW1 8522   6.366   2.271   6.156
  665SOL    HW2 8523   6.391   2.139   6.064
  666SOL     OW 8524   4.128   0.136   0.898
  666SOL    HW1 8525   4.083   0.221   0.927
  666SOL    HW2 8526   4.223   0.155   0.875
  667SOL     OW 8527   4.226   2.637   0.561
  667SOL    HW1 8528   4.256   2.555   0.512
  667SOL    HW2 8529   4.248   2.718   0.507
  668SOL     OW 8530   1.532   1.817   6.700
  668SOL    HW1 8531   1.622   1.850   6.673
  668SOL    HW2 8532   1.505   1.742   6.640
  669SOL     OW 8533   6.240   2.872   2.112
  669SOL    HW1 8534   6.293   2.787   2.119
  669SOL    HW2 8535   6.301   2.946   2.084
  670SOL     OW 8536   4.873   1.245   5.544
  670SOL    HW1 8537   4.804   1.296   5.596
  670SOL    HW2 8538   4.834   1.217   5.456
  671SOL     OW 8539   4.336   4.976   0.470
  671SOL    HW1 8540   4.305   5.061   0.511
  671SOL    HW2 8541   4.340   4.986   0.370
  672SOL     OW 8542   3.195   5.557   0.144
  672SOL    HW1 8543   3.161   5.648   0.121
  672SOL    HW2 8544   3.279   5.539   0.093
  673SOL     OW 8545   2.295   1.447   0.814
  673SOL    HW1 8546   2.385   1.405   0.826
  673SOL    HW2 8547   2.293   1.534   0.864
  674SOL     OW 8548   2.583   4.079   1.096
  674SOL    HW1 8549   2.538   4.018   1.160
  674SOL    HW2 8550   2.515   4.121   1.036
  675SOL     OW 8551   1.296   2.722   0.762
  675SOL    HW1 8552   1.290   2.715   0.663
  675SOL    HW2 8553   1.391   2.707   0.791
  676SOL     OW 8554   4.791   4.137   0.856
  676SOL    HW1 8555   4.694   4.128   0.836
  676SOL    HW2 8556   4.845   4.103   0.778
  677SOL     OW 8557   1.742   1.642   5.243
  677SOL    HW1 8558   1.842   1.643   5.236
  677SOL    HW2 8559   1.708   1.735   5.254
  678SOL     OW 8560   0.167   0.900   6.618
  678SOL    HW1 8561   0.265   0.883   6.603
  678SOL    HW2 8562   0.136   0.970   6.555
  679SOL     OW 8563   0.105   5.687   0.423
  679SOL    HW1 8564   0.128   5.710   0.517
  679SOL    HW2 8565   0.076   5.591   0.418
  680SOL     OW 8566   3.539   1.690   1.877
  680SOL    HW1 8567   3.441   1.689   1.896
  680SOL    HW2 8568   3.564   1.776   1.832
  681SOL     OW 8569   6.141   2.453   0.966
  681SOL    HW1 8570   6.079   2.531   0.974
  681SOL    HW2 8571   6.225   2.482   0.920
  682SOL     OW 8572   4.353   5.998   1.409
  682SOL    HW1 8573   4.258   5.972   1.424
  682SOL    HW2 8574   4.360   6.047   1.322
  683SOL     OW 8575   3.859   3.965   0.617
  683SOL    HW1 8576   3.889   4.054   0.650
  683SOL    HW2 8577   3.889   3.894   0.681
  684SOL     OW 8578   1.711   4.325   1.048
  684SOL    HW1 8579   1.801   4.324   1.004
  684SOL    HW2 8580   1.663   4.240   1.027
  685SOL     OW 8581   5.082   1.954   0.471
  685SOL    HW1 8582   5.138   1.992   0.545
  685SOL    HW2 8583   5.114   1.990   0.383
  686SOL     OW 8584   5.827   3.524   6.028
  686SOL    HW1 8585   5.801   3.565   5.941
  686SOL    HW2 8586   5.927   3.521   6.036
  687SOL     OW 8587   3.295   0.057   0.502
  687SOL    HW1 8588   3.257   0.113   0.575
  687SOL    HW2 8589   3.294   6.437   0.530
  688SOL     OW 8590   0.662   6.065   6.792
  688SOL    HW1 8591   0.758   6.078   6.770
  688SOL    HW2 8592   0.646   6.090   6.888
  689SOL     OW 8593   4.437   1.656   1.765
  689SOL    HW1 8594   4.454   1.752   1.786
  689SOL    HW2 8595   4.502   1.599   1.815
  690SOL     OW 8596   0.568   2.496   5.743
  690SOL    HW1 8597   0.584   2.583   5.695
  690SOL    HW2 8598   0.491   2.506   5.805
  691SOL     OW 8599   0.736   1.113   7.341
  691SOL    HW1 8600   0.801   1.176   7.298
  691SOL    HW2 8601   0.655   1.103   7.283
  692SOL     OW 8602   0.491   1.195   1.274
  692SOL    HW1 8603   0.563   1.255   1.310
  692SOL    HW2 8604   0.519   1.100   1.283
  693SOL     OW 8605   4.081   3.508   6.172
  693SOL    HW1 8606   4.024   3.450   6.230
  693SOL    HW2 8607   4.128   3.575   6.228
  694SOL     OW 8608   0.396   1.740   0.234
  694SOL    HW1 8609   0.403   1.660   0.294
  694SOL    HW2 8610   0.322   1.726   0.168
  695SOL     OW 8611   1.191   1.644   1.871
  695SOL    HW1 8612   1.097   1.614   1.856
  695SOL    HW2 8613   1.203   1.667   1.968
  696SOL     OW 8614   2.927   0.439   0.821
  696SOL    HW1 8615   2.885   0.349   0.806
  696SOL    HW2 8616   2.857   0.505   0.844
  697SOL     OW 8617   0.357   1.830   0.945
  697SOL    HW1 8618   0.406   1.782   0.873
  697SOL    HW2 8619   0.266   1.857   0.913
  698SOL     OW 8620   2.942   0.850   0.708
  698SOL    HW1 8621   2.911   0.843   0.804
  698SOL    HW2 8622   2.886   0.790   0.651
  699SOL     OW 8623   4.369   2.114   6.341
  699SOL    HW1 8624   4.323   2.199   6.366
  699SOL    HW2 8625   4.422   2.080   6.419
  700SOL     OW 8626   4.476   4.369   0.924
  700SOL    HW1 8627   4.407   4.409   0.864
  700SOL    HW2 8628   4.456   4.393   1.019
  701SOL     OW 8629   6.562   5.416   1.219
  701SOL    HW1 8630   6.513   5.401   1.133
  701SOL    HW2 8631   6.496   5.415   1.295
  702SOL     OW 8632   6.473   1.727   6.936
  702SOL    HW1 8633   6.536   1.700   7.008
  702SOL    HW2 8634   6.517   1.794   6.875
  703SOL     OW 8635   1.801   0.747   7.346
  703SOL    HW1 8636   1.859   0.672   7.379
  703SOL    HW2 8637   1.708   0.735   7.380
  704SOL     OW 8638   1.297   1.740   0.958
  704SOL    HW1 8639   1.250   1.683   1.025
  704SOL    HW2 8640   1.395   1.719   0.958
  705SOL     OW 8641   2.226   4.423   0.944
  705SOL    HW1 8642   2.211   4.500   1.006
  705SOL    HW2 8643   2.271   4.455   0.861
  706SOL     OW 8644   5.862   3.339   0.688
  706SOL    HW1 8645   5.944   3.295   0.725
  706SOL    HW2 8646   5.888   3.405   0.617
  707SOL     OW 8647   5.169   0.246   5.862
  707SOL    HW1 8648   5.219   0.175   5.912
  707SOL    HW2 8649   5.204   0.251   5.768
  708SOL     OW 8650   4.159   2.683   6.053
  708SOL    HW1 8651   4.210   2.768   6.066
  708SOL    HW2 8652   4.063   2.704   6.034
  709SOL     OW 8653   6.117   3.375   0.879
  709SOL    HW1 8654   6.078   3.308   0.943
  709SOL    HW2 8655   6.147   3.328   0.796
  710SOL     OW 8656   0.901   4.096   1.695
  710SOL    HW1 8657   0.831   4.159   1.728
  710SOL    HW2 8658   0.861   4.005   1.683
  711SOL     OW 8659   2.789   2.319   7.249
  711SOL    HW1 8660   2.852   2.285   7.318
  711SOL    HW2 8661   2.803   2.417   7.237
  712SOL     OW 8662   0.993   3.388   6.952
  712SOL    HW1 8663   1.009   3.474   6.904
  712SOL    HW2 8664   0.919   3.338   6.906
  713SOL     OW 8665   4.379   3.099   6.395
  713SOL    HW1 8666   4.431   3.014   6.401
  713SOL    HW2 8667   4.391   3.139   6.304
  714SOL     OW 8668   3.521   3.877   6.517
  714SOL    HW1 8669   3.513   3.846   6.612
  714SOL    HW2 8670   3.617   3.876   6.490
  715SOL     OW 8671   5.847   5.685   0.374
  715SOL    HW1 8672   5.775   5.755   0.375
  715SOL    HW2 8673   5.840   5.631   0.458
  716SOL     OW 8674   6.013   3.312   6.937
  716SOL    HW1 8675   6.028   3.220   6.973
  716SOL    HW2 8676   5.921   3.343   6.960
  717SOL     OW 8677   0.043   4.631   5.859
  717SOL    HW1 8678   0.118   4.696   5.855
  717SOL    HW2 8679   0.069   4.546   5.814
  718SOL     OW 8680   3.979   2.941   6.724
  718SOL    HW1 8681   3.897   2.999   6.726
  718SOL    HW2 8682   4.038   2.969   6.649
  719SOL     OW 8683   1.438   1.987   0.135
  719SOL    HW1 8684   1.365   2.003   0.202
  719SOL    HW2 8685   1.521   1.957   0.183
  720SOL     OW 8686   0.732   0.603   6.753
  720SOL    HW1 8687   0.675   0.628   6.832
  720SOL    HW2 8688   0.738   0.681   6.691
  721SOL     OW 8689   4.710   3.684   1.933
  721SOL    HW1 8690   4.644   3.747   1.893
  721SOL    HW2 8691   4.703   3.688   2.033
  722SOL     OW 8692   3.271   0.225   6.156
  722SOL    HW1 8693   3.287   0.131   6.185
  722SOL    HW2 8694   3.352   0.280   6.175
  723SOL     OW 8695   4.025   5.641   5.565
  723SOL    HW1 8696   3.949   5.686   5.610
  723SOL    HW2 8697   4.009   5.542   5.561
  724SOL     OW 8698   0.906   1.888   0.642
  724SOL    HW1 8699   0.923   1.916   0.548
  724SOL    HW2 8700   0.993   1.861   0.685
  725SOL     OW 8701   0.622   1.310   0.100
  725SOL    HW1 8702   0.647   1.225   0.052
  725SOL    HW2 8703   0.698   1.375   0.093
  726SOL     OW 8704   0.311   2.150   2.135
  726SOL    HW1 8705   0.227   2.155   2.189
  726SOL    HW2 8706   0.350   2.242   2.125
  727SOL     OW 8707   0.224   6.218   0.776
  727SOL    HW1 8708   0.214   6.303   0.724
  727SOL    HW2 8709   0.277   6.236   0.860
  728SOL     OW 8710   5.147   0.313   7.088
  728SOL    HW1 8711   5.218   0.261   7.135
  728SOL    HW2 8712   5.073   0.335   7.151
  729SOL     OW 8713   4.410   1.443   5.718
  729SOL    HW1 8714   4.336   1.476   5.660
  729SOL    HW2 8715   4.384   1.356   5.759
  730SOL     OW 8716   2.679   3.738   5.980
  730SOL    HW1 8717   2.758   3.713   5.925
  730SOL    HW2 8718   2.685   3.835   6.004
  731SOL     OW 8719   0.139   5.530   0.006
  731SOL    HW1 8720   0.176   5.574   0.088
  731SOL    HW2 8721   0.215   5.501   7.361
  732SOL     OW 8722   4.393   3.451   0.370
  732SOL    HW1 8723   4.324   3.515   0.336
  732SOL    HW2 8724   4.466   3.501   0.416
  733SOL     OW 8725   0.080   0.184   7.124
  733SOL    HW1 8726   6.574   0.162   7.082
  733SOL    HW2 8727   0.110   0.107   7.181
  734SOL     OW 8728   3.636   5.242   7.048
  734SOL    HW1 8729   3.686   5.307   7.105
  734SOL    HW2 8730   3.682   5.234   6.959
  735SOL     OW 8731   3.794   5.678   1.470
  735SOL    HW1 8732   3.697   5.701   1.464
  735SOL    HW2 8733   3.825   5.692   1.564
  736SOL     OW 8734   3.799   2.544   2.096
  736SOL    HW1 8735   3.744   2.547   2.179
  736SOL    HW2 8736   3.884   2.494   2.114
  737SOL     OW 8737   1.004   4.666   0.168
  737SOL    HW1 8738   1.090   4.704   0.201
  737SOL    HW2 8739   0.938   4.741   0.155
  738SOL     OW 8740   2.294   0.695   6.805
  738SOL    HW1 8741   2.308   0.605   6.765
  738SOL    HW2 8742   2.382   0.731   6.836
  739SOL     OW 8743   0.193   5.035   0.228
  739SOL    HW1 8744   0.238   4.948   0.210
  739SOL    HW2 8745   0.215   5.099   0.154
  740SOL     OW 8746   5.829   3.244   6.078
  740SOL    HW1 8747   5.783   3.222   6.164
  740SOL    HW2 8748   5.819   3.341   6.059
  741SOL     OW 8749   0.319   4.791   0.176
  741SOL    HW1 8750   0.307   4.771   0.273
  741SOL    HW2 8751   0.407   4.755   0.145
  742SOL     OW 8752   2.110   3.827   5.978
  742SOL    HW1 8753   2.185   3.889   5.956
  742SOL    HW2 8754   2.139   3.733   5.960
  743SOL     OW 8755   5.776   2.270   1.188
  743SOL    HW1 8756   5.780   2.252   1.286
  743SOL    HW2 8757   5.809   2.190   1.138
  744SOL     OW 8758   5.937   3.452   5.707
  744SOL    HW1 8759   5.884   3.531   5.738
  744SOL    HW2 8760   6.006   3.481   5.641
  745SOL     OW 8761   3.356   5.276   7.329
  745SOL    HW1 8762   3.312   5.250   7.243
  745SOL    HW2 8763   3.332   5.210   7.400
  746SOL     OW 8764   0.020   5.966   6.466
  746SOL    HW1 8765   0.043   6.018   6.548
  746SOL    HW2 8766   6.507   5.985   6.439
  747SOL     OW 8767   0.365   5.050   6.461
  747SOL    HW1 8768   0.372   4.990   6.381
  747SOL    HW2 8769   0.395   5.142   6.436
  748SOL     OW 8770   4.891   6.113   0.676
  748SOL    HW1 8771   4.802   6.070   0.663
  748SOL    HW2 8772   4.901   6.189   0.612
  749SOL     OW 8773   1.901   4.400   0.066
  749SOL    HW1 8774   1.934   4.306   0.072
  749SOL    HW2 8775   1.978   4.464   0.073
  750SOL     OW 8776   2.381   5.810   6.777
  750SOL    HW1 8777   2.351   5.735   6.718
  750SOL    HW2 8778   2.467   5.784   6.822
  751SOL     OW 8779   6.300   0.660   1.246
  751SOL    HW1 8780   6.314   0.701   1.156
  751SOL    HW2 8781   6.208   0.620   1.251
  752SOL     OW 8782   5.503   1.232   6.999
  752SOL    HW1 8783   5.440   1.236   7.077
  752SOL    HW2 8784   5.576   1.300   7.012
  753SOL     OW 8785   3.208   4.262   6.342
  753SOL    HW1 8786   3.273   4.204   6.392
  753SOL    HW2 8787   3.245   4.354   6.334
  754SOL     OW 8788   1.851   0.511   0.820
  754SOL    HW1 8789   1.851   0.604   0.856
  754SOL    HW2 8790   1.796   0.507   0.737
  755SOL     OW 8791   3.848   2.570   7.271
  755SOL    HW1 8792   3.803   2.619   7.346
  755SOL    HW2 8793   3.826   2.472   7.278
  756SOL     OW 8794   4.349   6.305   2.086
  756SOL    HW1 8795   4.257   6.273   2.066
  756SOL    HW2 8796   4.405   6.228   2.117
  757SOL     OW 8797   6.456   6.251   5.904
  757SOL    HW1 8798   6.374   6.309   5.901
  757SOL    HW2 8799   6.537   6.308   5.918
  758SOL     OW 8800   2.295   5.234   6.989
  758SOL    HW1 8801   2.256   5.305   7.048
  758SOL    HW2 8802   2.362   5.181   7.041
  759SOL     OW 8803   4.084   5.823   0.502
  759SOL    HW1 8804   4.000   5.848   0.456
  759SOL    HW2 8805   4.155   5.891   0.483
  760SOL     OW 8806   3.377   4.921   0.641
  760SOL    HW1 8807   3.278   4.933   0.650
  760SOL    HW2 8808   3.409   4.856   0.710
  761SOL     OW 8809   4.509   4.359   6.705
  761SOL    HW1 8810   4.555   4.415   6.636
  761SOL    HW2 8811   4.445   4.415   6.757
  762SOL     OW 8812   2.516   2.579   7.129
  762SOL    HW1 8813   2.420   2.606   7.128
  762SOL    HW2 8814   2.566   2.638   7.192
  763SOL     OW 8815   1.116   2.933   0.637
  763SOL    HW1 8816   1.049   3.007   0.638
  763SOL    HW2 8817   1.132   2.900   0.730
  764SOL     OW 8818   4.888   4.432   0.392
  764SOL    HW1 8819   4.832   4.354   0.365
  764SOL    HW2 8820   4.976   4.427   0.345
  765SOL     OW 8821   0.312   4.597   6.673
  765SOL    HW1 8822   0.359   4.685   6.671
  765SOL    HW2 8823   0.225   4.603   6.625
  766SOL     OW 8824   1.496   1.487   0.321
  766SOL    HW1 8825   1.438   1.558   0.360
  766SOL    HW2 8826   1.446   1.401   0.318
  767SOL     OW 8827   4.206   0.079   5.880
  767SOL    HW1 8828   4.123   0.063   5.934
  767SOL    HW2 8829   4.189   0.055   5.785
  768SOL     OW 8830   3.520   2.990   6.635
  768SOL    HW1 8831   3.466   3.072   6.617
  768SOL    HW2 8832   3.460   2.910   6.642
  769SOL     OW 8833   2.298   6.389   0.251
  769SOL    HW1 8834   2.381   6.360   0.299
  769SOL    HW2 8835   2.233   6.313   0.247
  770SOL     OW 8836   4.886   0.741   6.139
  770SOL    HW1 8837   4.807   0.802   6.132
  770SOL    HW2 8838   4.855   0.647   6.150
  771SOL     OW 8839   1.883   5.088   7.114
  771SOL    HW1 8840   1.876   4.989   7.124
  771SOL    HW2 8841   1.875   5.131   7.204
  772SOL     OW 8842   3.389   4.750   6.949
  772SOL    HW1 8843   3.479   4.743   6.907
  772SOL    HW2 8844   3.319   4.754   6.877
  773SOL     OW 8845   3.532   4.866   7.231
  773SOL    HW1 8846   3.540   4.917   7.317
  773SOL    HW2 8847   3.504   4.772   7.251
  774SOL     OW 8848   5.587   1.203   7.360
  774SOL    HW1 8849   5.671   1.169   7.318
  774SOL    HW2 8850   5.564   1.146   0.025
  775SOL     OW 8851   3.818   0.604   6.044
  775SOL    HW1 8852   3.755   0.530   6.019
  775SOL    HW2 8853   3.883   0.619   5.969
  776SOL     OW 8854   3.842   4.064   7.280
  776SOL    HW1 8855   3.885   4.142   7.326
  776SOL    HW2 8856   3.772   4.097   7.217
  777SOL     OW 8857   3.238   3.588   6.656
  777SOL    HW1 8858   3.310   3.545   6.711
  777SOL    HW2 8859   3.171   3.519   6.628
  778SOL     OW 8860   0.655   3.126   6.611
  778SOL    HW1 8861   0.695   3.202   6.558
  778SOL    HW2 8862   0.560   3.149   6.635
  779SOL     OW 8863   3.088   0.967   6.017
  779SOL    HW1 8864   3.101   1.018   5.932
  779SOL    HW2 8865   3.081   0.869   5.996
  780SOL     OW 8866   1.037   1.896   6.268
  780SOL    HW1 8867   1.075   1.805   6.252
  780SOL    HW2 8868   0.937   1.890   6.267
  781SOL     OW 8869   5.910   0.510   7.124
  781SOL    HW1 8870   5.998   0.550   7.147
  781SOL    HW2 8871   5.879   0.544   7.035
  782SOL     OW 8872   0.550   1.297   1.587
  782SOL    HW1 8873   0.533   1.199   1.597
  782SOL    HW2 8874   0.557   1.340   1.677
  783SOL     OW 8875   2.792   5.919   6.022
  783SOL    HW1 8876   2.754   5.940   6.112
  783SOL    HW2 8877   2.770   5.825   5.997
  784SOL     OW 8878   3.973   2.669   6.648
  784SOL    HW1 8879   4.004   2.671   6.553
  784SOL    HW2 8880   3.970   2.762   6.685
  785SOL     OW 8881   5.180   3.945   6.157
  785SOL    HW1 8882   5.193   3.955   6.058
  785SOL    HW2 8883   5.130   4.025   6.192
  786SOL     OW 8884   3.117   3.939   1.117
  786SOL    HW1 8885   3.131   3.844   1.091
  786SOL    HW2 8886   3.019   3.959   1.119
  787SOL     OW 8887   2.491   1.695   6.729
  787SOL    HW1 8888   2.513   1.755   6.805
  787SOL    HW2 8889   2.520   1.738   6.643
  788SOL     OW 8890   6.440   4.726   1.721
  788SOL    HW1 8891   6.398   4.748   1.809
  788SOL    HW2 8892   6.429   4.803   1.659
  789SOL     OW 8893   2.046   1.215   7.404
  789SOL    HW1 8894   2.030   1.117   7.394
  789SOL    HW2 8895   1.987   1.252   0.062
  790SOL     OW 8896   3.782   1.973   5.830
  790SOL    HW1 8897   3.792   1.949   5.926
  790SOL    HW2 8898   3.715   1.912   5.787
  791SOL     OW 8899   3.949   4.805   5.485
  791SOL    HW1 8900   4.033   4.847   5.451
  791SOL    HW2 8901   3.920   4.734   5.422
  792SOL     OW 8902   3.065   1.491   6.018
  792SOL    HW1 8903   3.141   1.537   6.064
  792SOL    HW2 8904   3.011   1.440   6.085
  793SOL     OW 8905   5.707   3.209   6.323
  793SOL    HW1 8906   5.616   3.247   6.338
  793SOL    HW2 8907   5.725   3.137   6.390
  794SOL     OW 8908   5.961   6.297   0.021
  794SOL    HW1 8909   5.883   6.242   0.050
  794SOL    HW2 8910   5.929   6.384   7.399
  795SOL     OW 8911   2.791   2.010   5.263
  795SOL    HW1 8912   2.835   1.925   5.292
  795SOL    HW2 8913   2.849   2.088   5.285
  796SOL     OW 8914   4.261   5.230   0.545
  796SOL    HW1 8915   4.164   5.243   0.563
  796SOL    HW2 8916   4.287   5.280   0.463
  797SOL     OW 8917   4.625   3.470   6.162
  797SOL    HW1 8918   4.570   3.468   6.078
  797SOL    HW2 8919   4.691   3.545   6.156
  798SOL     OW 8920   1.520   2.959   0.857
  798SOL    HW1 8921   1.520   2.860   0.868
  798SOL    HW2 8922   1.500   3.002   0.945
  799SOL     OW 8923   3.933   4.199   0.747
  799SOL    HW1 8924   3.852   4.167   0.797
  799SOL    HW2 8925   3.971   4.279   0.793
  800SOL     OW 8926   4.181   2.749   1.748
  800SOL    HW1 8927   4.134   2.686   1.687
  800SOL    HW2 8928   4.256   2.701   1.794
  801SOL     OW 8929   4.563   1.838   0.990
  801SOL    HW1 8930   4.603   1.780   1.062
  801SOL    HW2 8931   4.636   1.875   0.933
  802SOL     OW 8932   4.194   4.939   6.268
  802SOL    HW1 8933   4.153   4.961   6.180
  802SOL    HW2 8934   4.181   5.016   6.331
  803SOL     OW 8935   3.513   6.101   1.763
  803SOL    HW1 8936   3.486   6.196   1.775
  803SOL    HW2 8937   3.439   6.041   1.793
  804SOL     OW 8938   0.832   2.586   0.625
  804SOL    HW1 8939   0.852   2.580   0.723
  804SOL    HW2 8940   0.809   2.495   0.591
  805SOL     OW 8941   2.592   2.433   0.845
  805SOL    HW1 8942   2.610   2.372   0.768
  805SOL    HW2 8943   2.533   2.387   0.912
  806SOL     OW 8944   0.339   3.393   6.963
  806SOL    HW1 8945   0.286   3.407   6.880
  806SOL    HW2 8946   0.278   3.366   7.037
  807SOL     OW 8947   0.354   5.457   7.263
  807SOL    HW1 8948   0.375   5.365   7.229
  807SOL    HW2 8949   0.337   5.518   7.186
  808SOL     OW 8950   5.809   2.580   5.318
  808SOL    HW1 8951   5.867   2.661   5.310
  808SOL    HW2 8952   5.726   2.604   5.369
  809SOL     OW 8953   5.454   1.217   1.087
  809SOL    HW1 8954   5.395   1.150   1.041
  809SOL    HW2 8955   5.409   1.306   1.087
  810SOL     OW 8956   4.434   2.367   6.661
  810SOL    HW1 8957   4.371   2.355   6.584
  810SOL    HW2 8958   4.528   2.363   6.629
  811SOL     OW 8959   4.735   5.441   1.549
  811SOL    HW1 8960   4.709   5.536   1.569
  811SOL    HW2 8961   4.802   5.410   1.616
  812SOL     OW 8962   5.476   0.392   7.209
  812SOL    HW1 8963   5.417   0.473   7.204
  812SOL    HW2 8964   5.420   0.310   7.217
  813SOL     OW 8965   2.491   1.598   6.261
  813SOL    HW1 8966   2.430   1.674   6.238
  813SOL    HW2 8967   2.484   1.528   6.191
  814SOL     OW 8968   6.380   3.150   6.849
  814SOL    HW1 8969   6.344   3.130   6.940
  814SOL    HW2 8970   6.323   3.105   6.780
  815SOL     OW 8971   1.584   0.099   1.513
  815SOL    HW1 8972   1.630   0.016   1.479
  815SOL    HW2 8973   1.653   0.162   1.550
  816SOL     OW 8974   3.418   2.741   7.059
  816SOL    HW1 8975   3.517   2.725   7.062
  816SOL    HW2 8976   3.384   2.754   7.152
  817SOL     OW 8977   6.184   2.629   5.414
  817SOL    HW1 8978   6.254   2.632   5.343
  817SOL    HW2 8979   6.212   2.687   5.491
  818SOL     OW 8980   2.456   5.851   6.326
  818SOL    HW1 8981   2.427   5.934   6.279
  818SOL    HW2 8982   2.553   5.834   6.307
  819SOL     OW 8983   5.689   0.324   1.557
  819SOL    HW1 8984   5.747   0.272   1.620
  819SOL    HW2 8985   5.595   0.326   1.592
  820SOL     OW 8986   5.445   0.020   6.998
  820SOL    HW1 8987   5.387   0.081   6.944
  820SOL    HW2 8988   5.451   6.407   6.953
  821SOL     OW 8989   1.605   2.529   1.717
  821SOL    HW1 8990   1.687   2.483   1.683
  821SOL    HW2 8991   1.616   2.552   1.813
  822SOL     OW 8992   1.332   1.801   5.852
  822SOL    HW1 8993   1.403   1.803   5.922
  822SOL    HW2 8994   1.365   1.749   5.773
  823SOL     OW 8995   5.953   4.673   0.342
  823SOL    HW1 8996   5.902   4.609   0.400
  823SOL    HW2 8997   5.890   4.716   0.278
  824SOL     OW 8998   2.115   3.596   6.396
  824SOL    HW1 8999   2.041   3.568   6.335
  824SOL    HW2 9000   2.103   3.553   6.485
  825SOL     OW 9001   3.127   4.050   0.163
  825SOL    HW1 9002   3.110   3.952   0.177
  825SOL    HW2 9003   3.189   4.062   0.086
  826SOL     OW 9004   6.023   2.001   6.283
  826SOL    HW1 9005   6.046   2.082   6.228
  826SOL    HW2 9006   5.932   1.968   6.258
  827SOL     OW 9007   2.353   5.602   0.552
  827SOL    HW1 9008   2.293   5.543   0.607
  827SOL    HW2 9009   2.386   5.677   0.609
  828SOL     OW 9010   6.241   0.371   0.417
  828SOL    HW1 9011   6.320   0.370   0.479
  828SOL    HW2 9012   6.234   0.282   0.371
  829SOL     OW 9013   6.155   4.727   6.541
  829SOL    HW1 9014   6.167   4.663   6.465
  829SOL    HW2 9015   6.060   4.726   6.571
  830SOL     OW 9016   2.469   1.889   7.344
  830SOL    HW1 9017   2.529   1.969   7.334
  830SOL    HW2 9018   2.523   1.806   7.335
  831SOL     OW 9019   5.459   0.425   0.892
  831SOL    HW1 9020   5.433   0.376   0.975
  831SOL    HW2 9021   5.382   0.425   0.828
  832SOL     OW 9022   2.313   2.472   0.719
  832SOL    HW1 9023   2.387   2.489   0.784
  832SOL    HW2 9024   2.228   2.453   0.768
  833SOL     OW 9025   4.196   5.275   6.815
  833SOL    HW1 9026   4.120   5.268   6.879
  833SOL    HW2 9027   4.163   5.302   6.725
  834SOL     OW 9028   3.596   3.202   7.376
  834SOL    HW1 9029   3.578   3.243   7.287
  834SOL    HW2 9030   3.515   3.208   0.019
  835SOL     OW 9031   3.030   2.506   6.562
  835SOL    HW1 9032   3.052   2.579   6.496
  835SOL    HW2 9033   3.005   2.423   6.513
  836SOL     OW 9034   3.631   2.906   0.593
  836SOL    HW1 9035   3.680   2.824   0.563
  836SOL    HW2 9036   3.539   2.879   0.624
  837SOL     OW 9037   0.747   1.687   6.243
  837SOL    HW1 9038   0.768   1.729   6.154
  837SOL    HW2 9039   0.814   1.615   6.262
  838SOL     OW 9040   3.361   4.339   7.340
  838SOL    HW1 9041   3.342   4.242   7.356
  838SOL    HW2 9042   3.347   4.359   7.243
  839SOL     OW 9043   0.399   4.259   6.991
  839SOL    HW1 9044   0.444   4.233   7.076
  839SOL    HW2 9045   0.344   4.182   6.958
  840SOL     OW 9046   0.012   4.602   6.128
  840SOL    HW1 9047   0.089   4.642   6.178
  840SOL    HW2 9048   0.021   4.622   6.031
  841SOL     OW 9049   5.167   6.226   1.774
  841SOL    HW1 9050   5.173   6.127   1.767
  841SOL    HW2 9051   5.166   6.253   1.870
  842SOL     OW 9052   5.679   0.179   0.107
  842SOL    HW1 9053   5.638   0.123   0.179
  842SOL    HW2 9054   5.607   0.222   0.053
  843SOL     OW 9055   4.092   0.773   5.588
  843SOL    HW1 9056   4.025   0.782   5.514
  843SOL    HW2 9057   4.158   0.702   5.565
  844SOL     OW 9058   2.997   4.505   7.400
  844SOL    HW1 9059   3.072   4.494   0.051
  844SOL    HW2 9060   2.926   4.562   0.026
  845SOL     OW 9061   0.088   3.692   7.074
  845SOL    HW1 9062   0.061   3.663   7.166
  845SOL    HW2 9063   0.185   3.716   7.073
  846SOL     OW 9064   4.148   3.632   0.832
  846SOL    HW1 9065   4.174   3.536   0.830
  846SOL    HW2 9066   4.186   3.679   0.752
  847SOL     OW 9067   3.962   6.208   6.595
  847SOL    HW1 9068   4.044   6.208   6.539
  847SOL    HW2 9069   3.948   6.299   6.634
  848SOL     OW 9070   2.087   3.959   6.218
  848SOL    HW1 9071   2.089   3.910   6.131
  848SOL    HW2 9072   2.146   3.912   6.284
  849SOL     OW 9073   2.157   4.637   0.555
  849SOL    HW1 9074   2.095   4.604   0.626
  849SOL    HW2 9075   2.106   4.655   0.471
  850SOL     OW 9076   0.380   4.680   0.760
  850SOL    HW1 9077   0.350   4.771   0.731
  850SOL    HW2 9078   0.480   4.675   0.755
  851SOL     OW 9079   1.987   2.212   1.307
  851SOL    HW1 9080   2.044   2.294   1.306
  851SOL    HW2 9081   2.046   2.131   1.304
  852SOL     OW 9082   1.561   5.658   6.325
  852SOL    HW1 9083   1.639   5.611   6.284
  852SOL    HW2 9084   1.590   5.749   6.356
  853SOL     OW 9085   3.441   0.287   0.140
  853SOL    HW1 9086   3.462   0.274   0.044
  853SOL    HW2 9087   3.483   0.372   0.172
  854SOL     OW 9088   2.303   1.984   5.221
  854SOL    HW1 9089   2.247   2.055   5.180
  854SOL    HW2 9090   2.394   1.985   5.179
  855SOL     OW 9091   1.507   4.752   1.201
  855SOL    HW1 9092   1.447   4.766   1.280
  855SOL    HW2 9093   1.540   4.658   1.201
  856SOL     OW 9094   4.564   0.218   7.223
  856SOL    HW1 9095   4.516   0.161   7.290
  856SOL    HW2 9096   4.585   0.164   7.142
  857SOL     OW 9097   5.262   2.452   1.796
  857SOL    HW1 9098   5.274   2.550   1.810
  857SOL    HW2 9099   5.333   2.402   1.846
  858SOL     OW 9100   6.270   3.708   0.151
  858SOL    HW1 9101   6.344   3.764   0.113
  858SOL    HW2 9102   6.221   3.662   0.076
  859SOL     OW 9103   1.389   0.228   0.473
  859SOL    HW1 9104   1.375   0.271   0.563
  859SOL    HW2 9105   1.312   0.250   0.413
  860SOL     OW 9106   6.299   3.028   7.081
  860SOL    HW1 9107   6.200   3.038   7.076
  860SOL    HW2 9108   6.322   2.931   7.073
  861SOL     OW 9109   2.891   5.734   1.397
  861SOL    HW1 9110   2.955   5.682   1.452
  861SOL    HW2 9111   2.822   5.777   1.456
  862SOL     OW 9112   5.903   1.144   6.204
  862SOL    HW1 9113   5.851   1.169   6.122
  862SOL    HW2 9114   5.990   1.103   6.178
  863SOL     OW 9115   6.197   2.618   5.855
  863SOL    HW1 9116   6.198   2.629   5.954
  863SOL    HW2 9117   6.121   2.558   5.829
  864SOL     OW 9118   1.552   5.877   0.708
  864SOL    HW1 9119   1.566   5.943   0.634
  864SOL    HW2 9120   1.455   5.872   0.730
  865SOL     OW 9121   3.896   5.954   5.860
  865SOL    HW1 9122   3.862   6.045   5.838
  865SOL    HW2 9123   3.869   5.890   5.788
  866SOL     OW 9124   2.127   2.334   6.945
  866SOL    HW1 9125   2.145   2.359   7.040
  866SOL    HW2 9126   2.099   2.238   6.941
  867SOL     OW 9127   0.076   5.349   1.891
  867SOL    HW1 9128   0.114   5.256   1.889
  867SOL    HW2 9129   6.558   5.344   1.899
  868SOL     OW 9130   2.096   0.885   6.018
  868SOL    HW1 9131   2.196   0.884   6.018
  868SOL    HW2 9132   2.064   0.955   5.953
  869SOL     OW 9133   4.587   1.042   0.772
  869SOL    HW1 9134   4.502   1.059   0.724
  869SOL    HW2 9135   4.572   1.046   0.871
  870SOL     OW 9136   1.684   3.250   6.620
  870SOL    HW1 9137   1.622   3.282   6.549
  870SOL    HW2 9138   1.734   3.327   6.658
  871SOL     OW 9139   2.254   0.035   6.416
  871SOL    HW1 9140   2.209   0.125   6.419
  871SOL    HW2 9141   2.318   0.028   6.492
  872SOL     OW 9142   1.021   1.888   5.668
  872SOL    HW1 9143   1.085   1.849   5.603
  872SOL    HW2 9144   1.071   1.939   5.738
  873SOL     OW 9145   5.854   4.447   5.850
  873SOL    HW1 9146   5.802   4.530   5.828
  873SOL    HW2 9147   5.893   4.410   5.766
  874SOL     OW 9148   1.860   5.661   7.216
  874SOL    HW1 9149   1.928   5.615   7.159
  874SOL    HW2 9150   1.788   5.698   7.158
  875SOL     OW 9151   0.260   6.093   5.203
  875SOL    HW1 9152   0.174   6.112   5.155
  875SOL    HW2 9153   0.285   5.997   5.190
  876SOL     OW 9154   0.516   1.581   7.167
  876SOL    HW1 9155   0.458   1.552   7.091
  876SOL    HW2 9156   0.479   1.543   7.252
  877SOL     OW 9157   5.874   2.458   0.620
  877SOL    HW1 9158   5.907   2.399   0.694
  877SOL    HW2 9159   5.917   2.430   0.533
  878SOL     OW 9160   1.082   1.834   6.907
  878SOL    HW1 9161   1.071   1.746   6.861
  878SOL    HW2 9162   1.179   1.859   6.910
  879SOL     OW 9163   5.738   3.391   7.010
  879SOL    HW1 9164   5.730   3.469   6.948
  879SOL    HW2 9165   5.651   3.342   7.015
  880SOL     OW 9166   0.767   6.127   0.065
  880SOL    HW1 9167   0.817   6.152   0.148
  880SOL    HW2 9168   0.689   6.069   0.089
  881SOL     OW 9169   0.638   2.842   0.505
  881SOL    HW1 9170   0.643   2.906   0.582
  881SOL    HW2 9171   0.731   2.812   0.481
  882SOL     OW 9172   1.291   1.396   0.731
  882SOL    HW1 9173   1.282   1.297   0.717
  882SOL    HW2 9174   1.218   1.444   0.682
  883SOL     OW 9175   2.942   5.301   6.353
  883SOL    HW1 9176   2.966   5.360   6.431
  883SOL    HW2 9177   3.026   5.267   6.311
  884SOL     OW 9178   2.851   1.048   7.365
  884SOL    HW1 9179   2.862   0.958   7.406
  884SOL    HW2 9180   2.931   1.069   7.309
  885SOL     OW 9181   1.859   1.697   0.308
  885SOL    HW1 9182   1.917   1.656   0.237
  885SOL    HW2 9183   1.815   1.624   0.360
  886SOL     OW 9184   4.035   6.202   0.662
  886SOL    HW1 9185   3.964   6.224   0.728
  886SOL    HW2 9186   4.111   6.267   0.673
  887SOL     OW 9187   5.195   4.241   6.472
  887SOL    HW1 9188   5.199   4.180   6.551
  887SOL    HW2 9189   5.233   4.330   6.496
  888SOL     OW 9190   1.109   4.544   4.982
  888SOL    HW1 9191   1.130   4.447   4.994
  888SOL    HW2 9192   1.010   4.557   4.988
  889SOL     OW 9193   0.055   5.681   5.285
  889SOL    HW1 9194   0.145   5.638   5.296
  889SOL    HW2 9195   0.002   5.631   5.217
  890SOL     OW 9196   5.341   2.741   0.082
  890SOL    HW1 9197   5.282   2.786   0.015
  890SOL    HW2 9198   5.436   2.745   0.052
  891SOL     OW 9199   4.022   4.740   0.173
  891SOL    HW1 9200   3.968   4.678   0.115
  891SOL    HW2 9201   4.068   4.807   0.115
  892SOL     OW 9202   1.861   4.553   7.005
  892SOL    HW1 9203   1.870   4.526   6.909
  892SOL    HW2 9204   1.951   4.554   7.049
  893SOL     OW 9205   4.354   5.343   0.303
  893SOL    HW1 9206   4.385   5.428   0.260
  893SOL    HW2 9207   4.295   5.293   0.240
  894SOL     OW 9208   6.185   2.655   6.134
  894SOL    HW1 9209   6.169   2.751   6.110
  894SOL    HW2 9210   6.246   2.650   6.213
  895SOL     OW 9211   0.417   6.085   6.323
  895SOL    HW1 9212   0.502   6.041   6.291
  895SOL    HW2 9213   0.435   6.181   6.342
  896SOL     OW 9214   3.331   6.172   2.147
  896SOL    HW1 9215   3.301   6.099   2.208
  896SOL    HW2 9216   3.395   6.232   2.195
  897SOL     OW 9217   1.068   1.921   5.321
  897SOL    HW1 9218   1.117   1.869   5.390
  897SOL    HW2 9219   1.001   1.862   5.275
  898SOL     OW 9220   4.755   1.342   5.934
  898SOL    HW1 9221   4.736   1.363   5.838
  898SOL    HW2 9222   4.710   1.410   5.992
  899SOL     OW 9223   3.513   4.552   1.206
  899SOL    HW1 9224   3.442   4.624   1.206
  899SOL    HW2 9225   3.526   4.518   1.113
  900SOL     OW 9226   4.580   0.229   1.011
  900SOL    HW1 9227   4.569   0.291   1.089
  900SOL    HW2 9228   4.669   0.185   1.016
  901SOL     OW 9229   0.594   4.436   6.158
  901SOL    HW1 9230   0.648   4.361   6.120
  901SOL    HW2 9231   0.617   4.447   6.255
  902SOL     OW 9232   5.145   5.868   7.076
  902SOL    HW1 9233   5.240   5.875   7.109
  902SOL    HW2 9234   5.141   5.808   6.997
  903SOL     OW 9235   2.592   2.205   0.681
  903SOL    HW1 9236   2.619   2.135   0.748
  903SOL    HW2 9237   2.495   2.196   0.660
  904SOL     OW 9238   4.111   1.638   0.973
  904SOL    HW1 9239   4.207   1.661   0.956
  904SOL    HW2 9240   4.053   1.716   0.951
  905SOL     OW 9241   6.320   2.408   1.645
  905SOL    HW1 9242   6.222   2.416   1.626
  905SOL    HW2 9243   6.338   2.324   1.696
  906SOL     OW 9244   4.463   4.483   1.631
  906SOL    HW1 9245   4.475   4.452   1.725
  906SOL    HW2 9246   4.474   4.404   1.569
  907SOL     OW 9247   0.208   2.433   5.247
  907SOL    HW1 9248   0.287   2.449   5.187
  907SOL    HW2 9249   0.225   2.351   5.303
  908SOL     OW 9250   4.535   2.796   6.127
  908SOL    HW1 9251   4.508   2.772   6.034
  908SOL    HW2 9252   4.635   2.806   6.131
  909SOL     OW 9253   4.117   0.804   5.144
  909SOL    HW1 9254   4.141   0.734   5.077
  909SOL    HW2 9255   4.060   0.765   5.216
  910SOL     OW 9256   3.469   4.504   5.864
  910SOL    HW1 9257   3.501   4.439   5.795
  910SOL    HW2 9258   3.415   4.576   5.820
  911SOL     OW 9259   0.483   0.277   7.276
  911SOL    HW1 9260   0.451   0.343   7.208
  911SOL    HW2 9261   0.409   0.256   7.339
  912SOL     OW 9262   0.513   1.559   6.331
  912SOL    HW1 9263   0.495   1.480   6.273
  912SOL    HW2 9264   0.591   1.610   6.295
  913SOL     OW 9265   1.123   2.616   6.308
  913SOL    HW1 9266   1.143   2.518   6.299
  913SOL    HW2 9267   1.133   2.660   6.219
  914SOL     OW 9268   5.844   4.611   6.880
  914SOL    HW1 9269   5.812   4.641   6.970
  914SOL    HW2 9270   5.935   4.570   6.888
  915SOL     OW 9271   5.580   6.110   6.670
  915SOL    HW1 9272   5.671   6.116   6.711
  915SOL    HW2 9273   5.543   6.018   6.683
  916SOL     OW 9274   2.362   1.935   1.355
  916SOL    HW1 9275   2.379   1.876   1.434
  916SOL    HW2 9276   2.263   1.944   1.342
  917SOL     OW 9277   1.708   4.128   0.220
  917SOL    HW1 9278   1.789   4.155   0.273
  917SOL    HW2 9279   1.736   4.064   0.148
  918SOL     OW 9280   1.127   4.147   0.859
  918SOL    HW1 9281   1.190   4.182   0.928
  918SOL    HW2 9282   1.034   4.179   0.879
  919SOL     OW 9283   0.896   3.467   1.289
  919SOL    HW1 9284   0.965   3.431   1.227
  919SOL    HW2 9285   0.825   3.397   1.304
  920SOL     OW 9286   4.935   3.509   0.733
  920SOL    HW1 9287   5.005   3.538   0.668
  920SOL    HW2 9288   4.961   3.421   0.773
  921SOL     OW 9289   6.526   3.274   1.327
  921SOL    HW1 9290   6.502   3.261   1.230
  921SOL    HW2 9291   6.504   3.191   1.378
  922SOL     OW 9292   2.089   3.418   6.636
  922SOL    HW1 9293   2.096   3.361   6.554
  922SOL    HW2 9294   2.135   3.373   6.712
  923SOL     OW 9295   1.070   3.455   6.051
  923SOL    HW1 9296   1.026   3.366   6.058
  923SOL    HW2 9297   1.094   3.488   6.143
  924SOL     OW 9298   3.584   1.006   6.827
  924SOL    HW1 9299   3.505   0.991   6.887
  924SOL    HW2 9300   3.560   1.074   6.758
  925SOL     OW 9301   0.496   3.267   0.196
  925SOL    HW1 9302   0.407   3.232   0.226
  925SOL    HW2 9303   0.519   3.349   0.248
  926SOL     OW 9304   0.152   0.617   6.527
  926SOL    HW1 9305   0.061   0.633   6.491
  926SOL    HW2 9306   0.188   0.701   6.567
  927SOL     OW 9307   1.646   1.240   6.511
  927SOL    HW1 9308   1.718   1.300   6.477
  927SOL    HW2 9309   1.678   1.190   6.591
  928SOL     OW 9310   6.480   0.467   1.167
  928SOL    HW1 9311   6.432   0.542   1.212
  928SOL    HW2 9312   6.562   0.443   1.219
  929SOL     OW 9313   5.636   2.554   0.962
  929SOL    HW1 9314   5.708   2.559   1.031
  929SOL    HW2 9315   5.636   2.463   0.920
  930SOL     OW 9316   0.404   3.673   0.125
  930SOL    HW1 9317   0.396   3.766   0.161
  930SOL    HW2 9318   0.469   3.672   0.049
  931SOL     OW 9319   1.816   1.140   7.106
  931SOL    HW1 9320   1.878   1.218   7.117
  931SOL    HW2 9321   1.747   1.162   7.036
  932SOL     OW 9322   6.017   4.499   0.809
  932SOL    HW1 9323   6.028   4.446   0.724
  932SOL    HW2 9324   6.108   4.522   0.845
  933SOL     OW 9325   5.266   2.909   0.803
  933SOL    HW1 9326   5.269   2.965   0.886
  933SOL    HW2 9327   5.240   2.815   0.827
  934SOL     OW 9328   4.062   1.861   6.110
  934SOL    HW1 9329   3.966   1.886   6.101
  934SOL    HW2 9330   4.074   1.805   6.192
  935SOL     OW 9331   3.811   1.105   0.835
  935SOL    HW1 9332   3.838   1.047   0.911
  935SOL    HW2 9333   3.881   1.176   0.820
  936SOL     OW 9334   5.562   3.458   6.094
  936SOL    HW1 9335   5.653   3.495   6.072
  936SOL    HW2 9336   5.492   3.520   6.060
  937SOL     OW 9337   2.945   5.107   7.300
  937SOL    HW1 9338   2.951   5.105   7.201
  937SOL    HW2 9339   3.006   5.036   7.338
  938SOL     OW 9340   6.224   1.551   5.807
  938SOL    HW1 9341   6.274   1.608   5.742
  938SOL    HW2 9342   6.140   1.517   5.764
  939SOL     OW 9343   2.027   1.650   5.262
  939SOL    HW1 9344   2.084   1.593   5.321
  939SOL    HW2 9345   2.067   1.653   5.170
  940SOL     OW 9346   0.205   3.134   6.908
  940SOL    HW1 9347   0.142   3.057   6.904
  940SOL    HW2 9348   0.208   3.170   7.001
  941SOL     OW 9349   0.708   0.938   0.496
  941SOL    HW1 9350   0.770   0.969   0.424
  941SOL    HW2 9351   0.747   0.960   0.585
  942SOL     OW 9352   2.786   4.507   0.942
  942SOL    HW1 9353   2.809   4.530   1.036
  942SOL    HW2 9354   2.786   4.407   0.930
  943SOL     OW 9355   2.387   1.387   0.197
  943SOL    HW1 9356   2.370   1.339   0.111
  943SOL    HW2 9357   2.415   1.321   0.267
  944SOL     OW 9358   2.550   2.708   0.882
  944SOL    HW1 9359   2.626   2.764   0.912
  944SOL    HW2 9360   2.579   2.613   0.874
  945SOL     OW 9361   4.662   3.679   6.393
  945SOL    HW1 9362   4.694   3.712   6.305
  945SOL    HW2 9363   4.573   3.633   6.382
  946SOL     OW 9364   0.417   4.860   6.671
  946SOL    HW1 9365   0.400   4.925   6.597
  946SOL    HW2 9366   0.384   4.899   6.757
  947SOL     OW 9367   5.806   1.874   6.165
  947SOL    HW1 9368   5.826   1.778   6.183
  947SOL    HW2 9369   5.854   1.903   6.082
  948SOL     OW 9370   2.513   2.945   6.799
  948SOL    HW1 9371   2.439   2.989   6.851
  948SOL    HW2 9372   2.478   2.862   6.755
  949SOL     OW 9373   5.047   2.058   1.407
  949SOL    HW1 9374   4.986   1.987   1.443
  949SOL    HW2 9375   5.128   2.064   1.465
  950SOL     OW 9376   3.585   0.743   1.106
  950SOL    HW1 9377   3.564   0.651   1.142
  950SOL    HW2 9378   3.665   0.779   1.151
  951SOL     OW 9379   3.673   0.541   7.211
  951SOL    HW1 9380   3.652   0.639   7.214
  951SOL    HW2 9381   3.763   0.528   7.168
  952SOL     OW 9382   6.189   6.089   1.561
  952SOL    HW1 9383   6.280   6.095   1.602
  952SOL    HW2 9384   6.174   5.996   1.527
  953SOL     OW 9385   4.265   6.357   6.951
  953SOL    HW1 9386   4.228   6.373   7.042
  953SOL    HW2 9387   4.362   6.331   6.959
  954SOL     OW 9388   1.297   4.741   4.990
  954SOL    HW1 9389   1.256   4.823   4.950
  954SOL    HW2 9390   1.232   4.665   4.982
  955SOL     OW 9391   5.395   3.813   1.349
  955SOL    HW1 9392   5.360   3.809   1.443
  955SOL    HW2 9393   5.440   3.726   1.327
  956SOL     OW 9394   6.401   1.716   1.479
  956SOL    HW1 9395   6.459   1.796   1.462
  956SOL    HW2 9396   6.436   1.664   1.557
  957SOL     OW 9397   0.254   1.817   7.270
  957SOL    HW1 9398   0.284   1.882   7.340
  957SOL    HW2 9399   0.307   1.832   7.186
  958SOL     OW 9400   0.537   1.400   1.833
  958SOL    HW1 9401   0.448   1.421   1.875
  958SOL    HW2 9402   0.604   1.469   1.860
  959SOL     OW 9403   5.385   1.693   0.168
  959SOL    HW1 9404   5.368   1.599   0.195
  959SOL    HW2 9405   5.299   1.737   0.144
  960SOL     OW 9406   4.060   6.199   6.001
  960SOL    HW1 9407   3.978   6.194   5.945
  960SOL    HW2 9408   4.111   6.113   5.994
  961SOL     OW 9409   6.470   3.239   1.045
  961SOL    HW1 9410   6.428   3.179   0.977
  961SOL    HW2 9411   6.569   3.243   1.029
  962SOL     OW 9412   2.546   1.906   6.173
  962SOL    HW1 9413   2.471   1.853   6.134
  962SOL    HW2 9414   2.510   1.971   6.241
  963SOL     OW 9415   6.052   0.883   7.187
  963SOL    HW1 9416   6.010   0.889   7.278
  963SOL    HW2 9417   6.098   0.795   7.177
  964SOL     OW 9418   1.313   2.883   5.284
  964SOL    HW1 9419   1.233   2.942   5.280
  964SOL    HW2 9420   1.384   2.918   5.224
  965SOL     OW 9421   6.276   5.204   1.116
  965SOL    HW1 9422   6.333   5.270   1.066
  965SOL    HW2 9423   6.263   5.122   1.059
  966SOL     OW 9424   4.372   0.416   0.130
  966SOL    HW1 9425   4.462   0.413   0.087
  966SOL    HW2 9426   4.303   0.436   0.060
  967SOL     OW 9427   6.409   2.913   6.343
  967SOL    HW1 9428   6.499   2.930   6.382
  967SOL    HW2 9429   6.355   2.997   6.344
  968SOL     OW 9430   3.208   1.528   0.607
  968SOL    HW1 9431   3.256   1.454   0.653
  968SOL    HW2 9432   3.192   1.503   0.511
  969SOL     OW 9433   5.501   1.510   6.518
  969SOL    HW1 9434   5.520   1.586   6.456
  969SOL    HW2 9435   5.517   1.423   6.471
  970SOL     OW 9436   0.959   1.121   5.208
  970SOL    HW1 9437   1.040   1.176   5.187
  970SOL    HW2 9438   0.986   1.040   5.261
  971SOL     OW 9439   5.266   5.807   1.102
  971SOL    HW1 9440   5.251   5.898   1.063
  971SOL    HW2 9441   5.363   5.796   1.122
  972SOL     OW 9442   3.243   2.959   0.100
  972SOL    HW1 9443   3.145   2.957   0.082
  972SOL    HW2 9444   3.260   2.927   0.193
  973SOL     OW 9445   0.949   5.676   6.302
  973SOL    HW1 9446   1.041   5.657   6.337
  973SOL    HW2 9447   0.910   5.754   6.351
  974SOL     OW 9448   1.587   4.883   7.157
  974SOL    HW1 9449   1.685   4.870   7.138
  974SOL    HW2 9450   1.561   4.825   7.234
  975SOL     OW 9451   0.994   4.976   1.693
  975SOL    HW1 9452   1.001   4.877   1.680
  975SOL    HW2 9453   0.899   5.004   1.686
  976SOL     OW 9454   6.281   4.958   6.477
  976SOL    HW1 9455   6.244   5.024   6.543
  976SOL    HW2 9456   6.247   4.866   6.499
  977SOL     OW 9457   3.423   3.496   6.833
  977SOL    HW1 9458   3.384   3.529   6.919
  977SOL    HW2 9459   3.500   3.436   6.852
  978SOL     OW 9460   2.659   4.707   1.367
  978SOL    HW1 9461   2.574   4.713   1.419
  978SOL    HW2 9462   2.737   4.713   1.430
  979SOL     OW 9463   5.813   0.903   6.332
  979SOL    HW1 9464   5.823   0.994   6.291
  979SOL    HW2 9465   5.770   0.912   6.422
  980SOL     OW 9466   1.796   2.938   1.347
  980SOL    HW1 9467   1.829   2.894   1.431
  980SOL    HW2 9468   1.700   2.963   1.358
  981SOL     OW 9469   3.350   1.560   5.798
  981SOL    HW1 9470   3.342   1.567   5.699
  981SOL    HW2 9471   3.296   1.632   5.842
  982SOL     OW 9472   0.658   0.242   0.333
  982SOL    HW1 9473   0.595   0.274   0.403
  982SOL    HW2 9474   0.638   0.287   0.246
  983SOL     OW 9475   1.039   5.628   1.005
  983SOL    HW1 9476   0.955   5.621   0.950
  983SOL    HW2 9477   1.017   5.611   1.101
  984SOL     OW 9478   0.768   1.016   5.448
  984SOL    HW1 9479   0.857   0.981   5.420
  984SOL    HW2 9480   0.704   1.010   5.372
  985SOL     OW 9481   4.605   1.474   1.890
  985SOL    HW1 9482   4.696   1.452   1.925
  985SOL    HW2 9483   4.538   1.414   1.933
  986SOL     OW 9484   5.206   4.551   5.814
  986SOL    HW1 9485   5.165   4.642   5.811
  986SOL    HW2 9486   5.305   4.559   5.806
  987SOL     OW 9487   6.578   5.153   0.382
  987SOL    HW1 9488   0.062   5.118   0.315
  987SOL    HW2 9489   6.570   5.088   0.458
  988SOL     OW 9490   3.008   0.016   7.259
  988SOL    HW1 9491   2.913   0.048   7.253
  988SOL    HW2 9492   3.017   6.428   7.335
  989SOL     OW 9493   0.172   1.690   0.086
  989SOL    HW1 9494   0.097   1.626   0.069
  989SOL    HW2 9495   0.201   1.731   0.000
  990SOL     OW 9496   6.335   3.480   1.017
  990SOL    HW1 9497   6.247   3.454   0.977
  990SOL    HW2 9498   6.388   3.398   1.038
  991SOL     OW 9499   1.218   5.704   0.019
  991SOL    HW1 9500   1.234   5.777   0.086
  991SOL    HW2 9501   1.303   5.683   7.386
  992SOL     OW 9502   0.614   6.351   0.896
  992SOL    HW1 9503   0.584   6.407   0.819
  992SOL    HW2 9504   0.710   6.368   0.915
  993SOL     OW 9505   2.623   4.332   6.506
  993SOL    HW1 9506   2.717   4.346   6.472
  993SOL    HW2 9507   2.609   4.389   6.587
  994SOL     OW 9508   3.513   5.252   1.295
  994SOL    HW1 9509   3.431   5.244   1.351
  994SOL    HW2 9510   3.545   5.346   1.295
  995SOL     OW 9511   3.340   4.708   0.100
  995SOL    HW1 9512   3.409   4.681   0.033
  995SOL    HW2 9513   3.383   4.721   0.190
  996SOL     OW 9514   5.792   2.804   6.687
  996SOL    HW1 9515   5.787   2.716   6.640
  996SOL    HW2 9516   5.715   2.813   6.750
  997SOL     OW 9517   6.384   4.179   6.654
  997SOL    HW1 9518   6.351   4.089   6.626
  997SOL    HW2 9519   6.469   4.200   6.607
  998SOL     OW 9520   3.842   6.474   5.388
  998SOL    HW1 9521   3.757   0.050   5.382
  998SOL    HW2 9522   3.892   0.005   5.302
  999SOL     OW 9523   4.282   2.203   7.164
  999SOL    HW1 9524   4.327   2.117   7.188
  999SOL    HW2 9525   4.350   2.277   7.159
 1000SOL     OW 9526   4.381   5.454   6.918
 1000SOL    HW1 9527   4.313   5.388   6.884
 1000SOL    HW2 9528   4.419   5.505   6.841
 1001SOL     OW 9529   0.648   4.387   0.975
 1001SOL    HW1 9530   0.674   4.482   0.963
 1001SOL    HW2 9531   0.576   4.363   0.909
 1002SOL     OW 9532   0.754   3.643   6.785
 1002SOL    HW1 9533   0.762   3.742   6.802
 1002SOL    HW2 9534   0.680   3.606   6.842
 1003SOL     OW 9535   3.467   4.173   6.011
 1003SOL    HW1 9536   3.396   4.154   5.944
 1003SOL    HW2 9537   3.555   4.139   5.976
 1004SOL     OW 9538   6.386   0.439   6.554
 1004SOL    HW1 9539   6.290   0.464   6.563
 1004SOL    HW2 9540   6.427   0.432   6.645
 1005SOL     OW 9541   1.382   2.626   6.681
 1005SOL    HW1 9542   1.324   2.702   6.708
 1005SOL    HW2 9543   1.460   2.660   6.629
 1006SOL     OW 9544   3.984   2.470   1.132
 1006SOL    HW1 9545   3.887   2.456   1.147
 1006SOL    HW2 9546   3.998   2.547   1.070
 1007SOL     OW 9547   1.476   2.891   6.086
 1007SOL    HW1 9548   1.388   2.939   6.085
 1007SOL    HW2 9549   1.471   2.812   6.147
 1008SOL     OW 9550   5.785   1.794   1.672
 1008SOL    HW1 9551   5.709   1.833   1.723
 1008SOL    HW2 9552   5.825   1.718   1.724
 1009SOL     OW 9553   1.894   5.136   6.850
 1009SOL    HW1 9554   1.894   5.124   6.949
 1009SOL    HW2 9555   1.987   5.130   6.815
 1010SOL     OW 9556   2.857   6.125   5.564
 1010SOL    HW1 9557   2.864   6.058   5.638
 1010SOL    HW2 9558   2.892   6.086   5.479
 1011SOL     OW 9559   3.222   2.629   0.477
 1011SOL    HW1 9560   3.127   2.653   0.499
 1011SOL    HW2 9561   3.270   2.601   0.560
 1012SOL     OW 9562   6.324   3.211   0.193
 1012SOL    HW1 9563   6.401   3.197   0.131
 1012SOL    HW2 9564   6.331   3.302   0.235
 1013SOL     OW 9565   4.275   4.007   0.758
 1013SOL    HW1 9566   4.242   4.090   0.712
 1013SOL    HW2 9567   4.253   3.927   0.702
 1014SOL     OW 9568   1.606   0.037   0.499
 1014SOL    HW1 9569   1.564   6.432   0.458
 1014SOL    HW2 9570   1.541   0.113   0.498
 1015SOL     OW 9571   2.900   5.921   6.449
 1015SOL    HW1 9572   2.837   5.912   6.526
 1015SOL    HW2 9573   2.931   6.016   6.443
 1016SOL     OW 9574   3.779   3.282   0.413
 1016SOL    HW1 9575   3.847   3.322   0.474
 1016SOL    HW2 9576   3.752   3.350   0.344
 1017SOL     OW 9577   5.245   0.173   6.877
 1017SOL    HW1 9578   5.176   0.111   6.841
 1017SOL    HW2 9579   5.205   0.230   6.948
 1018SOL     OW 9580   3.940   3.820   0.848
 1018SOL    HW1 9581   3.973   3.888   0.914
 1018SOL    HW2 9582   4.007   3.745   0.842
 1019SOL     OW 9583   3.114   6.018   0.657
 1019SOL    HW1 9584   3.212   6.018   0.676
 1019SOL    HW2 9585   3.072   5.937   0.698
 1020SOL     OW 9586   5.378   3.870   0.728
 1020SOL    HW1 9587   5.283   3.846   0.749
 1020SOL    HW2 9588   5.380   3.956   0.677
 1021SOL     OW 9589   2.786   1.768   0.267
 1021SOL    HW1 9590   2.704   1.713   0.251
 1021SOL    HW2 9591   2.782   1.808   0.359
 1022SOL     OW 9592   3.679   3.193   6.302
 1022SOL    HW1 9593   3.635   3.206   6.213
 1022SOL    HW2 9594   3.636   3.253   6.369
 1023SOL     OW 9595   2.101   0.229   6.047
 1023SOL    HW1 9596   2.175   0.296   6.037
 1023SOL    HW2 9597   2.096   0.172   5.965
 1024SOL     OW 9598   0.811   1.258   5.958
 1024SOL    HW1 9599   0.787   1.285   5.865
 1024SOL    HW2 9600   0.830   1.340   6.013
 1025SOL     OW 9601   5.843   2.710   0.007
 1025SOL    HW1 9602   5.896   2.779   0.055
 1025SOL    HW2 9603   5.883   2.620   0.023
 1026SOL     OW 9604   5.313   3.297   1.008
 1026SOL    HW1 9605   5.368   3.307   0.926
 1026SOL    HW2 9606   5.279   3.203   1.015
 1027SOL     OW 9607   2.711   1.711   7.043
 1027SOL    HW1 9608   2.641   1.776   7.012
 1027SOL    HW2 9609   2.762   1.677   6.963
 1028SOL     OW 9610   6.363   2.578   0.838
 1028SOL    HW1 9611   6.421   2.518   0.893
 1028SOL    HW2 9612   6.383   2.564   0.741
 1029SOL     OW 9613   4.351   4.553   6.827
 1029SOL    HW1 9614   4.428   4.615   6.809
 1029SOL    HW2 9615   4.274   4.579   6.769
 1030SOL     OW 9616   0.985   1.699   1.578
 1030SOL    HW1 9617   0.976   1.653   1.666
 1030SOL    HW2 9618   0.981   1.798   1.591
 1031SOL     OW 9619   0.613   4.484   0.258
 1031SOL    HW1 9620   0.582   4.531   0.341
 1031SOL    HW2 9621   0.572   4.393   0.254
 1032SOL     OW 9622   2.331   3.984   5.958
 1032SOL    HW1 9623   2.403   4.019   5.899
 1032SOL    HW2 9624   2.360   3.990   6.053
 1033SOL     OW 9625   2.190   1.476   6.561
 1033SOL    HW1 9626   2.289   1.482   6.547
 1033SOL    HW2 9627   2.156   1.388   6.528
 1034SOL     OW 9628   0.349   4.957   6.922
 1034SOL    HW1 9629   0.337   4.883   6.988
 1034SOL    HW2 9630   0.276   5.023   6.931
 1035SOL     OW 9631   4.671   5.782   7.040
 1035SOL    HW1 9632   4.642   5.844   7.113
 1035SOL    HW2 9633   4.672   5.689   7.075
 1036SOL     OW 9634   1.546   1.477   5.923
 1036SOL    HW1 9635   1.616   1.421   5.967
 1036SOL    HW2 9636   1.588   1.560   5.886
 1037SOL     OW 9637   1.354   0.359   0.709
 1037SOL    HW1 9638   1.363   0.457   0.688
 1037SOL    HW2 9639   1.441   0.325   0.745
 1038SOL     OW 9640   5.893   5.062   0.232
 1038SOL    HW1 9641   5.931   5.152   0.213
 1038SOL    HW2 9642   5.807   5.051   0.182
 1039SOL     OW 9643   3.183   2.481   5.440
 1039SOL    HW1 9644   3.108   2.470   5.506
 1039SOL    HW2 9645   3.150   2.458   5.349
 1040SOL     OW 9646   0.209   2.558   0.824
 1040SOL    HW1 9647   0.146   2.615   0.877
 1040SOL    HW2 9648   0.303   2.583   0.846
 1041SOL     OW 9649   0.744   2.677   1.345
 1041SOL    HW1 9650   0.666   2.657   1.285
 1041SOL    HW2 9651   0.713   2.729   1.424
 1042SOL     OW 9652   3.108   4.069   1.735
 1042SOL    HW1 9653   3.185   4.128   1.759
 1042SOL    HW2 9654   3.108   3.989   1.795
 1043SOL     OW 9655   5.935   4.588   1.071
 1043SOL    HW1 9656   5.845   4.632   1.074
 1043SOL    HW2 9657   5.949   4.547   0.981
 1044SOL     OW 9658   3.812   4.543   6.930
 1044SOL    HW1 9659   3.818   4.637   6.963
 1044SOL    HW2 9660   3.829   4.540   6.832
 1045SOL     OW 9661   0.934   1.509   7.098
 1045SOL    HW1 9662   0.897   1.477   7.011
 1045SOL    HW2 9663   0.866   1.566   7.144
 1046SOL     OW 9664   4.811   5.535   7.390
 1046SOL    HW1 9665   4.766   5.550   7.303
 1046SOL    HW2 9666   4.757   5.471   0.031
 1047SOL     OW 9667   4.199   3.963   5.902
 1047SOL    HW1 9668   4.233   4.008   5.819
 1047SOL    HW2 9669   4.107   3.997   5.922
 1048SOL     OW 9670   5.837   1.772   0.692
 1048SOL    HW1 9671   5.809   1.750   0.598
 1048SOL    HW2 9672   5.773   1.838   0.731
 1049SOL     OW 9673   0.243   3.145   5.783
 1049SOL    HW1 9674   0.302   3.168   5.706
 1049SOL    HW2 9675   0.148   3.143   5.753
 1050SOL     OW 9676   0.397   1.946   6.045
 1050SOL    HW1 9677   0.436   1.992   5.966
 1050SOL    HW2 9678   0.439   1.982   6.129
 1051SOL     OW 9679   5.965   6.111   1.192
 1051SOL    HW1 9680   6.016   6.197   1.196
 1051SOL    HW2 9681   5.944   6.089   1.097
 1052SOL     OW 9682   2.438   1.889   0.802
 1052SOL    HW1 9683   2.520   1.933   0.838
 1052SOL    HW2 9684   2.459   1.845   0.715
 1053SOL     OW 9685   3.968   0.593   0.070
 1053SOL    HW1 9686   3.956   0.675   0.014
 1053SOL    HW2 9687   3.965   0.618   0.166
 1054SOL     OW 9688   3.753   6.222   6.330
 1054SOL    HW1 9689   3.830   6.285   6.324
 1054SOL    HW2 9690   3.698   6.243   6.411
 1055SOL     OW 9691   2.153   6.077   6.349
 1055SOL    HW1 9692   2.245   6.084   6.312
 1055SOL    HW2 9693   2.103   6.005   6.302
 1056SOL     OW 9694   3.844   5.854   6.107
 1056SOL    HW1 9695   3.865   5.885   6.014
 1056SOL    HW2 9696   3.890   5.914   6.173
 1057SOL     OW 9697   0.477   3.160   0.804
 1057SOL    HW1 9698   0.435   3.189   0.718
 1057SOL    HW2 9699   0.411   3.108   0.858
 1058SOL     OW 9700   2.699   6.446   0.695
 1058SOL    HW1 9701   2.690   6.356   0.653
 1058SOL    HW2 9702   2.612   6.472   0.738
 1059SOL     OW 9703   1.784   1.780   6.997
 1059SOL    HW1 9704   1.687   1.778   7.021
 1059SOL    HW2 9705   1.804   1.865   6.948
 1060SOL     OW 9706   3.769   0.199   0.969
 1060SOL    HW1 9707   3.849   0.258   0.962
 1060SOL    HW2 9708   3.686   0.255   0.974
 1061SOL     OW 9709   2.158   0.625   7.031
 1061SOL    HW1 9710   2.060   0.619   7.009
 1061SOL    HW2 9711   2.210   0.640   6.947
 1062SOL     OW 9712   2.837   0.824   0.973
 1062SOL    HW1 9713   2.764   0.814   1.040
 1062SOL    HW2 9714   2.926   0.806   1.016
 1063SOL     OW 9715   3.042   0.526   6.192
 1063SOL    HW1 9716   3.029   0.434   6.154
 1063SOL    HW2 9717   2.973   0.542   6.262
 1064SOL     OW 9718   2.139   0.469   0.531
 1064SOL    HW1 9719   2.087   0.426   0.605
 1064SOL    HW2 9720   2.237   0.470   0.555
 1065SOL     OW 9721   1.457   5.421   0.040
 1065SOL    HW1 9722   1.467   5.345   7.390
 1065SOL    HW2 9723   1.465   5.508   7.405
 1066SOL     OW 9724   0.127   0.449   1.711
 1066SOL    HW1 9725   0.188   0.372   1.729
 1066SOL    HW2 9726   0.103   0.494   1.797
 1067SOL     OW 9727   3.592   5.678   5.807
 1067SOL    HW1 9728   3.555   5.751   5.864
 1067SOL    HW2 9729   3.522   5.646   5.744
 1068SOL     OW 9730   0.294   3.244   1.948
 1068SOL    HW1 9731   0.213   3.185   1.938
 1068SOL    HW2 9732   0.265   3.339   1.955
 1069SOL     OW 9733   0.041   0.496   5.869
 1069SOL    HW1 9734   6.543   0.552   5.889
 1069SOL    HW2 9735   0.060   0.497   5.771
 1070SOL     OW 9736   4.441   1.008   1.393
 1070SOL    HW1 9737   4.404   1.010   1.486
 1070SOL    HW2 9738   4.393   0.938   1.340
 1071SOL     OW 9739   5.126   3.371   6.466
 1071SOL    HW1 9740   5.046   3.423   6.439
 1071SOL    HW2 9741   5.101   3.306   6.538
 1072SOL     OW 9742   4.350   0.742   0.597
 1072SOL    HW1 9743   4.310   0.738   0.689
 1072SOL    HW2 9744   4.328   0.829   0.555
 1073SOL     OW 9745   6.114   1.527   6.054
 1073SOL    HW1 9746   6.154   1.543   5.964
 1073SOL    HW2 9747   6.158   1.586   6.121
 1074SOL     OW 9748   4.297   1.325   0.351
 1074SOL    HW1 9749   4.265   1.420   0.352
 1074SOL    HW2 9750   4.300   1.290   0.445
 1075SOL     OW 9751   0.468   1.393   5.886
 1075SOL    HW1 9752   0.474   1.355   5.794
 1075SOL    HW2 9753   0.543   1.459   5.901
 1076SOL     OW 9754   1.673   3.060   6.180
 1076SOL    HW1 9755   1.766   3.033   6.155
 1076SOL    HW2 9756   1.608   2.996   6.139
 1077SOL     OW 9757   1.019   3.997   0.281
 1077SOL    HW1 9758   1.019   3.916   0.339
 1077SOL    HW2 9759   0.993   4.077   0.335
 1078SOL     OW 9760   1.739   0.092   5.615
 1078SOL    HW1 9761   1.726   0.176   5.563
 1078SOL    HW2 9762   1.769   0.019   5.554
 1079SOL     OW 9763   5.215   5.465   0.768
 1079SOL    HW1 9764   5.223   5.414   0.683
 1079SOL    HW2 9765   5.165   5.550   0.751
 1080SOL     OW 9766   0.449   1.745   6.535
 1080SOL    HW1 9767   0.410   1.830   6.502
 1080SOL    HW2 9768   0.473   1.686   6.458
 1081SOL     OW 9769   1.147   1.795   0.741
 1081SOL    HW1 9770   1.208   1.839   0.675
 1081SOL    HW2 9771   1.199   1.771   0.823
 1082SOL     OW 9772   1.288   1.958   1.286
 1082SOL    HW1 9773   1.285   2.036   1.348
 1082SOL    HW2 9774   1.237   1.882   1.326
 1083SOL     OW 9775   5.998   0.397   6.769
 1083SOL    HW1 9776   6.054   0.432   6.693
 1083SOL    HW2 9777   5.960   0.474   6.820
 1084SOL     OW 9778   4.381   0.356   1.393
 1084SOL    HW1 9779   4.418   0.351   1.486
 1084SOL    HW2 9780   4.313   0.429   1.388
 1085SOL     OW 9781   4.159   6.107   7.023
 1085SOL    HW1 9782   4.065   6.121   7.054
 1085SOL    HW2 9783   4.190   6.189   6.976
 1086SOL     OW 9784   5.145   3.623   0.130
 1086SOL    HW1 9785   5.175   3.588   0.041
 1086SOL    HW2 9786   5.095   3.551   0.179
 1087SOL     OW 9787   5.706   0.649   1.226
 1087SOL    HW1 9788   5.687   0.732   1.278
 1087SOL    HW2 9789   5.750   0.582   1.286
 1088SOL     OW 9790   1.505   3.029   1.901
 1088SOL    HW1 9791   1.435   2.964   1.931
 1088SOL    HW2 9792   1.519   3.098   1.972
 1089SOL     OW 9793   6.276   3.719   6.066
 1089SOL    HW1 9794   6.256   3.817   6.071
 1089SOL    HW2 9795   6.322   3.690   6.150
 1090SOL     OW 9796   4.442   4.431   6.154
 1090SOL    HW1 9797   4.429   4.335   6.130
 1090SOL    HW2 9798   4.537   4.457   6.138
 1091SOL     OW 9799   5.658   2.524   5.668
 1091SOL    HW1 9800   5.642   2.568   5.580
 1091SOL    HW2 9801   5.756   2.529   5.690
 1092SOL     OW 9802   4.638   4.017   5.491
 1092SOL    HW1 9803   4.587   3.960   5.427
 1092SOL    HW2 9804   4.632   4.113   5.462
 1093SOL     OW 9805   3.902   0.529   7.049
 1093SOL    HW1 9806   3.981   0.469   7.066
 1093SOL    HW2 9807   3.865   0.510   6.958
 1094SOL     OW 9808   5.233   1.147   5.669
 1094SOL    HW1 9809   5.154   1.087   5.652
 1094SOL    HW2 9810   5.316   1.091   5.674
 1095SOL     OW 9811   0.450   6.006   5.398
 1095SOL    HW1 9812   0.391   6.050   5.331
 1095SOL    HW2 9813   0.408   5.921   5.429
 1096SOL     OW 9814   2.444   3.123   7.381
 1096SOL    HW1 9815   2.514   3.074   7.329
 1096SOL    HW2 9816   2.453   3.100   0.064
 1097SOL     OW 9817   0.054   2.488   0.015
 1097SOL    HW1 9818   6.557   2.547   0.033
 1097SOL    HW2 9819   0.129   2.512   0.075
 1098SOL     OW 9820   2.308   2.564   6.457
 1098SOL    HW1 9821   2.360   2.645   6.428
 1098SOL    HW2 9822   2.212   2.575   6.429
 1099SOL     OW 9823   5.156   2.042   0.223
 1099SOL    HW1 9824   5.136   2.116   0.158
 1099SOL    HW2 9825   5.150   1.954   0.176
 1100SOL     OW 9826   5.918   2.503   5.854
 1100SOL    HW1 9827   5.931   2.495   5.953
 1100SOL    HW2 9828   5.900   2.412   5.816
 1101SOL     OW 9829   1.290   4.563   5.815
 1101SOL    HW1 9830   1.332   4.573   5.905
 1101SOL    HW2 9831   1.353   4.516   5.753
 1102SOL     OW 9832   3.063   2.400   5.209
 1102SOL    HW1 9833   3.019   2.323   5.256
 1102SOL    HW2 9834   3.025   2.408   5.117
 1103SOL     OW 9835   2.078   3.970   5.670
 1103SOL    HW1 9836   2.123   3.882   5.685
 1103SOL    HW2 9837   2.141   4.032   5.625
 1104SOL     OW 9838   6.351   2.186   5.570
 1104SOL    HW1 9839   6.428   2.191   5.507
 1104SOL    HW2 9840   6.324   2.091   5.582
 1105SOL     OW 9841   3.143   3.884   6.063
 1105SOL    HW1 9842   3.108   3.940   5.987
 1105SOL    HW2 9843   3.074   3.882   6.136
 1106SOL     OW 9844   4.155   4.334   6.389
 1106SOL    HW1 9845   4.189   4.254   6.340
 1106SOL    HW2 9846   4.231   4.396   6.409
 1107SOL     OW 9847   5.545   6.050   0.842
 1107SOL    HW1 9848   5.519   6.103   0.923
 1107SOL    HW2 9849   5.635   6.009   0.856
 1108SOL     OW 9850   0.931   4.222   5.844
 1108SOL    HW1 9851   0.921   4.318   5.818
 1108SOL    HW2 9852   0.903   4.164   5.768
 1109SOL     OW 9853   5.561   2.102   0.379
 1109SOL    HW1 9854   5.568   2.016   0.329
 1109SOL    HW2 9855   5.529   2.174   0.317
 1110SOL     OW 9856   2.040   4.218   7.051
 1110SOL    HW1 9857   1.969   4.287   7.039
 1110SOL    HW2 9858   2.128   4.255   7.022
 1111SOL     OW 9859   3.763   1.669   1.592
 1111SOL    HW1 9860   3.774   1.655   1.691
 1111SOL    HW2 9861   3.668   1.690   1.571
 1112SOL     OW 9862   1.862   1.369   0.897
 1112SOL    HW1 9863   1.834   1.390   0.804
 1112SOL    HW2 9864   1.786   1.329   0.948
 1113SOL     OW 9865   4.779   4.042   1.113
 1113SOL    HW1 9866   4.808   4.115   1.175
 1113SOL    HW2 9867   4.783   4.074   1.019
 1114SOL     OW 9868   4.853   5.472   6.175
 1114SOL    HW1 9869   4.882   5.563   6.204
 1114SOL    HW2 9870   4.804   5.479   6.088
 1115SOL     OW 9871   4.837   0.141   1.029
 1115SOL    HW1 9872   4.913   0.090   0.989
 1115SOL    HW2 9873   4.871   0.228   1.067
 1116SOL     OW 9874   6.427   3.851   7.083
 1116SOL    HW1 9875   6.508   3.794   7.074
 1116SOL    HW2 9876   6.450   3.934   7.133
 1117SOL     OW 9877   3.194   0.179   0.193
 1117SOL    HW1 9878   3.286   0.216   0.181
 1117SOL    HW2 9879   3.128   0.234   0.141
 1118SOL     OW 9880   1.618   2.155   6.543
 1118SOL    HW1 9881   1.629   2.253   6.560
 1118SOL    HW2 9882   1.522   2.134   6.530
 1119SOL     OW 9883   5.530   2.155   7.202
 1119SOL    HW1 9884   5.468   2.196   7.136
 1119SOL    HW2 9885   5.487   2.154   7.292
 1120SOL     OW 9886   1.154   5.444   0.496
 1120SOL    HW1 9887   1.167   5.534   0.537
 1120SOL    HW2 9888   1.216   5.434   0.418
 1121SOL     OW 9889   3.663   1.528   1.052
 1121SOL    HW1 9890   3.671   1.452   1.116
 1121SOL    HW2 9891   3.701   1.611   1.094
 1122SOL     OW 9892   4.260   3.510   5.245
 1122SOL    HW1 9893   4.288   3.578   5.177
 1122SOL    HW2 9894   4.162   3.494   5.239
 1123SOL     OW 9895   3.424   2.144   5.656
 1123SOL    HW1 9896   3.431   2.065   5.595
 1123SOL    HW2 9897   3.407   2.112   5.749
 1124SOL     OW 9898   1.893   1.629   6.003
 1124SOL    HW1 9899   1.824   1.670   5.943
 1124SOL    HW2 9900   1.851   1.603   6.089
 1125SOL     OW 9901   2.225   1.777   5.631
 1125SOL    HW1 9902   2.315   1.740   5.611
 1125SOL    HW2 9903   2.187   1.819   5.548
 1126SOL     OW 9904   4.522   2.438   6.158
 1126SOL    HW1 9905   4.580   2.357   6.170
 1126SOL    HW2 9906   4.542   2.480   6.069
 1127SOL     OW 9907   3.385   5.044   6.781
 1127SOL    HW1 9908   3.410   5.034   6.878
 1127SOL    HW2 9909   3.366   5.141   6.762
 1128SOL     OW 9910   4.786   5.735   0.766
 1128SOL    HW1 9911   4.705   5.780   0.802
 1128SOL    HW2 9912   4.759   5.671   0.693
 1129SOL     OW 9913   3.481   2.090   6.984
 1129SOL    HW1 9914   3.565   2.142   6.999
 1129SOL    HW2 9915   3.485   2.043   6.896
 1130SOL     OW 9916   1.675   5.689   0.883
 1130SOL    HW1 9917   1.638   5.738   0.804
 1130SOL    HW2 9918   1.654   5.591   0.875
 1131SOL     OW 9919   5.506   4.511   6.410
 1131SOL    HW1 9920   5.519   4.416   6.383
 1131SOL    HW2 9921   5.421   4.520   6.463
 1132SOL     OW 9922   4.461   1.987   0.256
 1132SOL    HW1 9923   4.405   2.036   0.189
 1132SOL    HW2 9924   4.493   1.901   0.216
 1133SOL     OW 9925   4.153   5.197   0.969
 1133SOL    HW1 9926   4.177   5.292   0.949
 1133SOL    HW2 9927   4.213   5.162   1.040
 1134SOL     OW 9928   0.149   0.405   1.274
 1134SOL    HW1 9929   0.182   0.452   1.192
 1134SOL    HW2 9930   0.190   0.314   1.279
 1135SOL     OW 9931   2.544   3.941   0.611
 1135SOL    HW1 9932   2.608   3.939   0.534
 1135SOL    HW2 9933   2.533   3.848   0.647
 1136SOL     OW 9934   0.796   0.852   1.359
 1136SOL    HW1 9935   0.846   0.896   1.285
 1136SOL    HW2 9936   0.782   0.917   1.434
 1137SOL     OW 9937   1.488   3.787   6.770
 1137SOL    HW1 9938   1.439   3.792   6.683
 1137SOL    HW2 9939   1.428   3.750   6.841
 1138SOL     OW 9940   2.868   0.338   7.264
 1138SOL    HW1 9941   2.919   0.345   7.179
 1138SOL    HW2 9942   2.813   0.254   7.262
 1139SOL     OW 9943   2.042   4.910   5.598
 1139SOL    HW1 9944   1.994   4.972   5.537
 1139SOL    HW2 9945   2.128   4.952   5.628
 1140SOL     OW 9946   2.561   2.829   0.623
 1140SOL    HW1 9947   2.494   2.903   0.635
 1140SOL    HW2 9948   2.559   2.771   0.704
 1141SOL     OW 9949   2.706   0.596   0.868
 1141SOL    HW1 9950   2.633   0.566   0.930
 1141SOL    HW2 9951   2.746   0.681   0.904
 1142SOL     OW 9952   2.679   3.372   5.933
 1142SOL    HW1 9953   2.778   3.367   5.940
 1142SOL    HW2 9954   2.642   3.422   6.011
 1143SOL     OW 9955   4.017   4.474   0.513
 1143SOL    HW1 9956   4.072   4.409   0.567
 1143SOL    HW2 9957   4.075   4.517   0.444
 1144SOL     OW 9958   4.196   2.829   7.170
 1144SOL    HW1 9959   4.286   2.851   7.132
 1144SOL    HW2 9960   4.124   2.869   7.112
 1145SOL     OW 9961   1.154   2.638   0.979
 1145SOL    HW1 9962   1.064   2.606   0.948
 1145SOL    HW2 9963   1.206   2.673   0.901
 1146SOL     OW 9964   3.334   4.167   5.580
 1146SOL    HW1 9965   3.254   4.200   5.531
 1146SOL    HW2 9966   3.417   4.198   5.534
 1147SOL     OW 9967   5.152   1.047   0.417
 1147SOL    HW1 9968   5.092   1.003   0.350
 1147SOL    HW2 9969   5.098   1.071   0.498
 1148SOL     OW 9970   1.319   0.957   6.142
 1148SOL    HW1 9971   1.370   0.885   6.095
 1148SOL    HW2 9972   1.352   1.047   6.111
 1149SOL     OW 9973   2.199   2.047   0.735
 1149SOL    HW1 9974   2.243   2.114   0.674
 1149SOL    HW2 9975   2.262   1.972   0.752
 1150SOL     OW 9976   5.514   4.877   6.837
 1150SOL    HW1 9977   5.526   4.792   6.889
 1150SOL    HW2 9978   5.552   4.866   6.745
 1151SOL     OW 9979   4.272   0.346   5.889
 1151SOL    HW1 9980   4.316   0.367   5.802
 1151SOL    HW2 9981   4.244   0.250   5.890
 1152SOL     OW 9982   2.552   1.895   6.910
 1152SOL    HW1 9983   2.496   1.954   6.968
 1152SOL    HW2 9984   2.611   1.952   6.852
 1153SOL     OW 9985   6.179   0.082   1.345
 1153SOL    HW1 9986   6.201   0.062   1.440
 1153SOL    HW2 9987   6.226   0.166   1.317
 1154SOL     OW 9988   2.449   0.316   1.244
 1154SOL    HW1 9989   2.494   0.253   1.307
 1154SOL    HW2 9990   2.417   0.264   1.164
 1155SOL     OW 9991   5.382   3.159   5.315
 1155SOL    HW1 9992   5.362   3.127   5.222
 1155SOL    HW2 9993   5.307   3.133   5.376
 1156SOL     OW 9994   5.474   0.656   1.059
 1156SOL    HW1 9995   5.558   0.656   1.114
 1156SOL    HW2 9996   5.474   0.576   0.999
 1157SOL     OW 9997   1.825   1.267   0.162
 1157SOL    HW1 9998   1.835   1.175   0.200
 1157SOL    HW2 9999   1.767   1.263   0.081
 1158SOL     OW10000   3.708   5.587   0.844
 1158SOL    HW110001   3.738   5.640   0.764
 1158SOL    HW210002   3.672   5.499   0.815
 1159SOL     OW10003   5.919   5.883   6.860
 1159SOL    HW110004   5.917   5.792   6.903
 1159SOL    HW210005   6.004   5.929   6.882
 1160SOL     OW10006   5.466   3.762   5.103
 1160SOL    HW110007   5.400   3.746   5.176
 1160SOL    HW210008   5.506   3.674   5.075
 1161SOL     OW10009   4.351   5.052   6.772
 1161SOL    HW110010   4.302   5.136   6.796
 1161SOL    HW210011   4.405   5.067   6.690
 1162SOL     OW10012   6.482   2.761   6.761
 1162SOL    HW110013   6.567   2.718   6.733
 1162SOL    HW210014   6.405   2.719   6.712
 1163SOL     OW10015   0.721   5.329   5.928
 1163SOL    HW110016   0.813   5.329   5.968
 1163SOL    HW210017   0.717   5.396   5.854
 1164SOL     OW10018   2.013   1.897   0.426
 1164SOL    HW110019   1.961   1.824   0.382
 1164SOL    HW210020   2.108   1.869   0.438
 1165SOL     OW10021   5.048   4.996   0.127
 1165SOL    HW110022   5.076   4.901   0.110
 1165SOL    HW210023   5.001   5.001   0.215
 1166SOL     OW10024   5.145   1.021   0.904
 1166SOL    HW110025   5.195   1.090   0.851
 1166SOL    HW210026   5.194   0.934   0.899
 1167SOL     OW10027   6.423   1.868   0.629
 1167SOL    HW110028   6.349   1.835   0.571
 1167SOL    HW210029   6.445   1.800   0.698
 1168SOL     OW10030   4.331   0.768   1.273
 1168SOL    HW110031   4.416   0.725   1.243
 1168SOL    HW210032   4.279   0.704   1.330
 1169SOL     OW10033   1.705   5.056   6.548
 1169SOL    HW110034   1.773   5.019   6.485
 1169SOL    HW210035   1.723   5.021   6.640
 1170SOL     OW10036   1.201   2.052   0.271
 1170SOL    HW110037   1.171   2.130   0.217
 1170SOL    HW210038   1.234   2.083   0.360
 1171SOL     OW10039   0.588   5.365   1.330
 1171SOL    HW110040   0.609   5.321   1.417
 1171SOL    HW210041   0.583   5.464   1.343
 1172SOL     OW10042   3.678   5.896   2.453
 1172SOL    HW110043   3.753   5.960   2.466
 1172SOL    HW210044   3.714   5.803   2.447
 1173SOL     OW10045   3.562   3.369   6.473
 1173SOL    HW110046   3.619   3.423   6.536
 1173SOL    HW210047   3.490   3.323   6.525
 1174SOL     OW10048   2.779   1.862   0.529
 1174SOL    HW110049   2.807   1.956   0.548
 1174SOL    HW210050   2.848   1.799   0.564
 1175SOL     OW10051   5.185   5.235   0.140
 1175SOL    HW110052   5.140   5.289   0.211
 1175SOL    HW210053   5.138   5.147   0.131
 1176SOL     OW10054   1.147   4.962   4.902
 1176SOL    HW110055   1.121   4.982   4.808
 1176SOL    HW210056   1.071   4.917   4.949
 1177SOL     OW10057   0.367   4.143   6.466
 1177SOL    HW110058   0.285   4.099   6.429
 1177SOL    HW210059   0.445   4.124   6.408
 1178SOL     OW10060   1.625   1.199   6.910
 1178SOL    HW110061   1.604   1.295   6.893
 1178SOL    HW210062   1.676   1.163   6.832
 1179SOL     OW10063   1.592   2.280   0.264
 1179SOL    HW110064   1.500   2.317   0.280
 1179SOL    HW210065   1.609   2.205   0.329
 1180SOL     OW10066   0.329   6.063   0.566
 1180SOL    HW110067   0.251   6.032   0.510
 1180SOL    HW210068   0.295   6.120   0.640
 1181SOL     OW10069   2.341   4.175   7.219
 1181SOL    HW110070   2.267   4.197   7.282
 1181SOL    HW210071   2.326   4.221   7.132
 1182SOL     OW10072   5.876   4.794   7.225
 1182SOL    HW110073   5.926   4.811   7.310
 1182SOL    HW210074   5.798   4.856   7.219
 1183SOL     OW10075   3.579   6.270   6.539
 1183SOL    HW110076   3.491   6.297   6.500
 1183SOL    HW210077   3.599   6.327   6.619
 1184SOL     OW10078   0.316   4.437   6.157
 1184SOL    HW110079   0.287   4.427   6.062
 1184SOL    HW210080   0.415   4.435   6.163
 1185SOL     OW10081   5.447   2.582   6.600
 1185SOL    HW110082   5.393   2.630   6.531
 1185SOL    HW210083   5.427   2.619   6.690
 1186SOL     OW10084   3.695   4.293   1.890
 1186SOL    HW110085   3.756   4.320   1.964
 1186SOL    HW210086   3.604   4.332   1.905
 1187SOL     OW10087   0.965   5.050   6.589
 1187SOL    HW110088   0.994   5.041   6.684
 1187SOL    HW210089   0.992   5.139   6.554
 1188SOL     OW10090   1.690   1.895   0.209
 1188SOL    HW110091   1.748   1.821   0.242
 1188SOL    HW210092   1.722   1.926   0.120
 1189SOL     OW10093   6.464   4.690   7.134
 1189SOL    HW110094   6.492   4.675   7.039
 1189SOL    HW210095   6.470   4.605   7.185
 1190SOL     OW10096   5.013   5.380   7.279
 1190SOL    HW110097   5.106   5.406   7.304
 1190SOL    HW210098   4.948   5.439   7.327
 1191SOL     OW10099   6.210   5.961   6.654
 1191SOL    HW110100   6.251   5.871   6.670
 1191SOL    HW210101   6.186   6.003   6.742
 1192SOL     OW10102   5.717   0.475   7.316
 1192SOL    HW110103   5.631   0.443   7.274
 1192SOL    HW210104   5.785   0.490   7.245
 1193SOL     OW10105   0.784   3.698   1.199
 1193SOL    HW110106   0.745   3.753   1.273
 1193SOL    HW210107   0.833   3.620   1.237
 1194SOL     OW10108   4.525   3.856   0.518
 1194SOL    HW110109   4.603   3.919   0.518
 1194SOL    HW210110   4.469   3.872   0.436
 1195SOL     OW10111   3.709   3.528   6.288
 1195SOL    HW110112   3.789   3.469   6.299
 1195SOL    HW210113   3.635   3.495   6.345
 1196SOL     OW10114   5.695   1.412   1.948
 1196SOL    HW110115   5.742   1.330   1.981
 1196SOL    HW210116   5.597   1.394   1.942
 1197SOL     OW10117   1.334   1.526   7.346
 1197SOL    HW110118   1.282   1.541   0.016
 1197SOL    HW210119   1.277   1.547   7.267
 1198SOL     OW10120   6.271   0.081   0.633
 1198SOL    HW110121   6.200   0.024   0.593
 1198SOL    HW210122   6.230   0.149   0.692
 1199SOL     OW10123   2.595   5.131   1.241
 1199SOL    HW110124   2.600   5.219   1.193
 1199SOL    HW210125   2.660   5.132   1.318
 1200SOL     OW10126   2.337   3.236   7.146
 1200SOL    HW110127   2.270   3.307   7.169
 1200SOL    HW210128   2.380   3.203   7.230
 1201SOL     OW10129   3.012   2.140   6.485
 1201SOL    HW110130   3.091   2.105   6.435
 1201SOL    HW210131   3.036   2.150   6.582
 1202SOL     OW10132   1.474   5.563   1.845
 1202SOL    HW110133   1.495   5.470   1.874
 1202SOL    HW210134   1.523   5.628   1.903
 1203SOL     OW10135   5.170   5.046   0.535
 1203SOL    HW110136   5.154   5.026   0.631
 1203SOL    HW210137   5.257   5.006   0.506
 1204SOL     OW10138   0.945   1.495   6.310
 1204SOL    HW110139   0.943   1.535   6.402
 1204SOL    HW210140   0.964   1.397   6.317
 1205SOL     OW10141   5.589   1.850   0.264
 1205SOL    HW110142   5.639   1.801   0.336
 1205SOL    HW210143   5.513   1.793   0.233
 1206SOL     OW10144   1.696   6.004   0.904
 1206SOL    HW110145   1.658   5.950   0.829
 1206SOL    HW210146   1.658   6.096   0.903
 1207SOL     OW10147   0.255   2.696   1.901
 1207SOL    HW110148   0.327   2.677   1.967
 1207SOL    HW210149   0.167   2.666   1.937
 1208SOL     OW10150   0.017   3.313   6.808
 1208SOL    HW110151   6.510   3.270   6.825
 1208SOL    HW210152   0.090   3.252   6.840
 1209SOL     OW10153   4.529   1.013   5.242
 1209SOL    HW110154   4.439   1.031   5.204
 1209SOL    HW210155   4.561   0.923   5.212
 1210SOL     OW10156   3.617   2.635   0.803
 1210SOL    HW110157   3.528   2.610   0.764
 1210SOL    HW210158   3.682   2.652   0.729
 1211SOL     OW10159   5.042   0.326   5.188
 1211SOL    HW110160   5.056   0.257   5.260
 1211SOL    HW210161   5.107   0.310   5.114
 1212SOL     OW10162   6.182   0.220   6.904
 1212SOL    HW110163   6.119   0.280   6.853
 1212SOL    HW210164   6.145   0.128   6.906
 1213SOL     OW10165   1.996   4.148   0.094
 1213SOL    HW110166   1.974   4.055   0.066
 1213SOL    HW210167   1.998   4.153   0.194
 1214SOL     OW10168   4.278   0.798   7.063
 1214SOL    HW110169   4.315   0.759   7.148
 1214SOL    HW210170   4.291   0.897   7.063
 1215SOL     OW10171   2.574   1.806   6.497
 1215SOL    HW110172   2.636   1.882   6.478
 1215SOL    HW210173   2.489   1.820   6.448
 1216SOL     OW10174   4.089   2.742   0.206
 1216SOL    HW110175   4.123   2.801   0.133
 1216SOL    HW210176   3.994   2.766   0.227
 1217SOL     OW10177   4.510   6.193   6.044
 1217SOL    HW110178   4.546   6.151   5.962
 1217SOL    HW210179   4.488   6.289   6.025
 1218SOL     OW10180   3.081   1.183   1.130
 1218SOL    HW110181   3.165   1.135   1.157
 1218SOL    HW210182   3.094   1.224   1.040
 1219SOL     OW10183   0.675   0.287   6.204
 1219SOL    HW110184   0.621   0.242   6.133
 1219SOL    HW210185   0.771   0.286   6.178
 1220SOL     OW10186   1.415   4.417   1.902
 1220SOL    HW110187   1.357   4.373   1.834
 1220SOL    HW210188   1.365   4.426   1.988
 1221SOL     OW10189   2.653   0.547   0.602
 1221SOL    HW110190   2.675   0.565   0.698
 1221SOL    HW210191   2.673   0.452   0.580
 1222SOL     OW10192   0.511   2.957   6.861
 1222SOL    HW110193   0.475   3.014   6.787
 1222SOL    HW210194   0.443   2.889   6.887
 1223SOL     OW10195   5.021   2.559   7.374
 1223SOL    HW110196   4.974   2.644   7.399
 1223SOL    HW210197   5.099   2.545   0.020
 1224SOL     OW10198   5.715   6.435   6.386
 1224SOL    HW110199   5.769   6.457   6.467
 1224SOL    HW210200   5.774   6.399   6.315
 1225SOL     OW10201   6.247   3.133   6.311
 1225SOL    HW110202   6.263   3.209   6.374
 1225SOL    HW210203   6.220   3.170   6.222
 1226SOL     OW10204   3.165   1.538   0.005
 1226SOL    HW110205   3.134   1.586   7.337
 1226SOL    HW210206   3.099   1.551   0.079
 1227SOL     OW10207   6.150   0.871   0.849
 1227SOL    HW110208   6.150   0.807   0.772
 1227SOL    HW210209   6.209   0.837   0.922
 1228SOL     OW10210   4.933   3.455   7.281
 1228SOL    HW110211   4.904   3.549   7.299
 1228SOL    HW210212   5.031   3.447   7.297
 1229SOL     OW10213   4.344   1.733   0.875
 1229SOL    HW110214   4.302   1.800   0.813
 1229SOL    HW210215   4.425   1.773   0.917
 1230SOL     OW10216   6.009   4.074   0.224
 1230SOL    HW110217   5.957   4.018   0.159
 1230SOL    HW210218   6.061   4.144   0.175
 1231SOL     OW10219   2.896   6.242   6.004
 1231SOL    HW110220   2.817   6.182   5.994
 1231SOL    HW210221   2.972   6.207   5.950
 1232SOL     OW10222   0.809   4.233   6.345
 1232SOL    HW110223   0.761   4.315   6.377
 1232SOL    HW210224   0.816   4.235   6.246
 1233SOL     OW10225   6.256   3.989   6.130
 1233SOL    HW110226   6.216   4.038   6.208
 1233SOL    HW210227   6.321   4.048   6.083
 1234SOL     OW10228   0.336   0.005   0.414
 1234SOL    HW110229   0.373   6.421   0.344
 1234SOL    HW210230   0.329   0.098   0.378
 1235SOL     OW10231   3.632   0.287   6.912
 1235SOL    HW110232   3.656   0.373   6.867
 1235SOL    HW210233   3.543   0.295   6.957
 1236SOL     OW10234   6.140   3.531   5.535
 1236SOL    HW110235   6.218   3.487   5.492
 1236SOL    HW210236   6.165   3.625   5.561
 1237SOL     OW10237   4.185   1.251   5.318
 1237SOL    HW110238   4.094   1.277   5.350
 1237SOL    HW210239   4.230   1.331   5.278
 1238SOL     OW10240   2.293   4.508   7.312
 1238SOL    HW110241   2.233   4.517   7.232
 1238SOL    HW210242   2.239   4.519   7.395
 1239SOL     OW10243   0.960   3.206   6.069
 1239SOL    HW110244   1.004   3.117   6.068
 1239SOL    HW210245   0.882   3.204   6.132
 1240SOL     OW10246   2.347   3.656   7.150
 1240SOL    HW110247   2.330   3.751   7.125
 1240SOL    HW210248   2.405   3.653   7.232
 1241SOL     OW10249   5.038   1.219   1.650
 1241SOL    HW110250   4.984   1.192   1.730
 1241SOL    HW210251   5.132   1.238   1.678
 1242SOL     OW10252   5.314   0.408   6.745
 1242SOL    HW110253   5.368   0.466   6.805
 1242SOL    HW210254   5.305   0.317   6.786
 1243SOL     OW10255   6.221   2.240   1.151
 1243SOL    HW110256   6.298   2.280   1.200
 1243SOL    HW210257   6.182   2.308   1.089
 1244SOL     OW10258   1.148   6.355   7.250
 1244SOL    HW110259   1.156   6.338   7.348
 1244SOL    HW210260   1.074   6.420   7.233
 1245SOL     OW10261   1.935   3.831   6.846
 1245SOL    HW110262   1.999   3.757   6.828
 1245SOL    HW210263   1.958   3.874   6.934
 1246SOL     OW10264   1.048   4.115   6.993
 1246SOL    HW110265   1.105   4.070   6.924
 1246SOL    HW210266   1.106   4.146   7.069
 1247SOL     OW10267   2.691   6.046   1.279
 1247SOL    HW110268   2.720   5.991   1.201
 1247SOL    HW210269   2.623   5.996   1.333
 1248SOL     OW10270   0.524   1.015   0.996
 1248SOL    HW110271   0.537   0.989   1.091
 1248SOL    HW210272   0.467   1.097   0.991
 1249SOL     OW10273   4.058   5.898   0.176
 1249SOL    HW110274   3.984   5.894   0.244
 1249SOL    HW210275   4.132   5.837   0.205
 1250SOL     OW10276   5.557   5.456   5.791
 1250SOL    HW110277   5.525   5.530   5.850
 1250SOL    HW210278   5.574   5.492   5.699
 1251SOL     OW10279   3.735   3.054   5.650
 1251SOL    HW110280   3.774   2.985   5.588
 1251SOL    HW210281   3.732   3.142   5.603
 1252SOL     OW10282   4.407   2.360   0.757
 1252SOL    HW110283   4.368   2.424   0.823
 1252SOL    HW210284   4.493   2.397   0.721
 1253SOL     OW10285   0.948   5.376   6.818
 1253SOL    HW110286   0.990   5.466   6.818
 1253SOL    HW210287   0.851   5.384   6.841
 1254SOL     OW10288   2.117   1.652   6.352
 1254SOL    HW110289   2.119   1.602   6.265
 1254SOL    HW210290   2.131   1.587   6.428
 1255SOL     OW10291   3.061   6.075   6.799
 1255SOL    HW110292   3.104   6.149   6.747
 1255SOL    HW210293   2.963   6.093   6.806
 1256SOL     OW10294   2.920   2.873   1.342
 1256SOL    HW110295   2.959   2.782   1.353
 1256SOL    HW210296   2.893   2.909   1.432
 1257SOL     OW10297   6.193   1.510   1.089
 1257SOL    HW110298   6.187   1.539   0.994
 1257SOL    HW210299   6.165   1.414   1.096
 1258SOL     OW10300   5.172   4.075   6.690
 1258SOL    HW110301   5.244   4.107   6.752
 1258SOL    HW210302   5.137   3.988   6.722
 1259SOL     OW10303   0.039   5.939   7.104
 1259SOL    HW110304   6.547   5.932   7.171
 1259SOL    HW210305   0.040   5.858   7.046
 1260SOL     OW10306   6.308   5.901   0.826
 1260SOL    HW110307   6.360   5.933   0.746
 1260SOL    HW210308   6.297   5.976   0.891
 1261SOL     OW10309   0.439   2.751   7.166
 1261SOL    HW110310   0.411   2.769   7.072
 1261SOL    HW210311   0.377   2.685   7.208
 1262SOL     OW10312   1.428   2.845   1.236
 1262SOL    HW110313   1.455   2.889   1.321
 1262SOL    HW210314   1.335   2.808   1.245
 1263SOL     OW10315   4.769   1.553   0.707
 1263SOL    HW110316   4.739   1.645   0.683
 1263SOL    HW210317   4.821   1.556   0.792
 1264SOL     OW10318   0.455   1.345   6.166
 1264SOL    HW110319   0.450   1.371   6.069
 1264SOL    HW210320   0.519   1.269   6.176
 1265SOL     OW10321   1.029   4.929   7.329
 1265SOL    HW110322   1.078   4.846   7.302
 1265SOL    HW210323   0.973   4.909   7.409
 1266SOL     OW10324   6.247   4.706   6.797
 1266SOL    HW110325   6.224   4.709   6.700
 1266SOL    HW210326   6.301   4.787   6.820
 1267SOL     OW10327   6.393   3.942   0.457
 1267SOL    HW110328   6.300   3.913   0.434
 1267SOL    HW210329   6.449   3.861   0.474
 1268SOL     OW10330   4.130   3.180   0.062
 1268SOL    HW110331   4.037   3.189   0.027
 1268SOL    HW210332   4.166   3.089   0.040
 1269SOL     OW10333   3.967   0.056   0.695
 1269SOL    HW110334   4.019   0.084   0.775
 1269SOL    HW210335   3.891   6.472   0.724
 1270SOL     OW10336   1.990   0.943   7.400
 1270SOL    HW110337   1.920   0.877   7.371
 1270SOL    HW210338   2.079   0.898   7.401
 1271SOL     OW10339   0.437   0.732   2.003
 1271SOL    HW110340   0.424   0.801   2.075
 1271SOL    HW210341   0.435   0.776   1.914
 1272SOL     OW10342   1.344   3.733   7.335
 1272SOL    HW110343   1.254   3.689   7.336
 1272SOL    HW210344   1.345   3.803   7.263
 1273SOL     OW10345   1.215   5.671   6.400
 1273SOL    HW110346   1.285   5.608   6.432
 1273SOL    HW210347   1.254   5.735   6.335
 1274SOL     OW10348   0.738   3.178   6.229
 1274SOL    HW110349   0.750   3.079   6.244
 1274SOL    HW210350   0.642   3.198   6.214
 1275SOL     OW10351   0.472   4.415   5.544
 1275SOL    HW110352   0.500   4.510   5.530
 1275SOL    HW210353   0.373   4.406   5.529
 1276SOL     OW10354   1.884   0.876   1.416
 1276SOL    HW110355   1.820   0.804   1.392
 1276SOL    HW210356   1.957   0.839   1.475
 1277SOL     OW10357   1.377   3.106   6.930
 1277SOL    HW110358   1.418   3.023   6.967
 1277SOL    HW210359   1.382   3.104   6.830
 1278SOL     OW10360   6.405   2.029   1.178
 1278SOL    HW110361   6.471   2.048   1.104
 1278SOL    HW210362   6.326   2.090   1.168
 1279SOL     OW10363   0.256   2.593   6.474
 1279SOL    HW110364   0.283   2.507   6.430
 1279SOL    HW210365   0.322   2.664   6.451
 1280SOL     OW10366   0.639   4.303   5.724
 1280SOL    HW110367   0.576   4.344   5.657
 1280SOL    HW210368   0.714   4.367   5.742
 1281SOL     OW10369   5.745   1.190   0.251
 1281SOL    HW110370   5.716   1.285   0.247
 1281SOL    HW210371   5.673   1.131   0.213
 1282SOL     OW10372   2.241   5.453   7.156
 1282SOL    HW110373   2.155   5.483   7.114
 1282SOL    HW210374   2.278   5.526   7.212
 1283SOL     OW10375   2.586   1.635   7.352
 1283SOL    HW110376   2.526   1.578   7.296
 1283SOL    HW210377   2.679   1.599   7.349
 1284SOL     OW10378   4.983   6.146   0.110
 1284SOL    HW110379   4.922   6.092   0.051
 1284SOL    HW210380   4.960   6.243   0.102
 1285SOL     OW10381   0.879   3.940   7.120
 1285SOL    HW110382   0.935   4.009   7.075
 1285SOL    HW210383   0.925   3.909   7.203
 1286SOL     OW10384   2.944   5.882   0.387
 1286SOL    HW110385   2.863   5.941   0.391
 1286SOL    HW210386   3.007   5.917   0.318
 1287SOL     OW10387   1.552   4.104   0.975
 1287SOL    HW110388   1.583   4.068   0.887
 1287SOL    HW210389   1.539   4.027   1.039
 1288SOL     OW10390   0.033   5.608   6.159
 1288SOL    HW110391   0.084   5.567   6.084
 1288SOL    HW210392   6.576   5.535   6.217
 1289SOL     OW10393   5.951   3.361   6.483
 1289SOL    HW110394   6.004   3.310   6.550
 1289SOL    HW210395   5.919   3.299   6.411
 1290SOL     OW10396   1.502   2.406   6.213
 1290SOL    HW110397   1.453   2.326   6.178
 1290SOL    HW210398   1.595   2.406   6.177
 1291SOL     OW10399   2.636   0.614   6.101
 1291SOL    HW110400   2.542   0.628   6.070
 1291SOL    HW210401   2.654   0.673   6.180
 1292SOL     OW10402   1.442   4.110   0.262
 1292SOL    HW110403   1.429   4.068   0.352
 1292SOL    HW210404   1.539   4.125   0.245
 1293SOL     OW10405   5.749   1.689   0.441
 1293SOL    HW110406   5.682   1.621   0.471
 1293SOL    HW210407   5.804   1.652   0.367
 1294SOL     OW10408   0.142   6.037   0.131
 1294SOL    HW110409   0.203   5.983   0.074
 1294SOL    HW210410   0.047   6.014   0.109
 1295SOL     OW10411   0.647   1.838   5.818
 1295SOL    HW110412   0.667   1.819   5.722
 1295SOL    HW210413   0.600   1.926   5.827
 1296SOL     OW10414   4.972   1.336   0.094
 1296SOL    HW110415   4.894   1.282   0.127
 1296SOL    HW210416   4.943   1.392   0.016
 1297SOL     OW10417   3.458   2.204   7.272
 1297SOL    HW110418   3.482   2.170   7.181
 1297SOL    HW210419   3.502   2.292   7.288
 1298SOL     OW10420   3.293   2.972   6.168
 1298SOL    HW110421   3.284   3.072   6.165
 1298SOL    HW210422   3.205   2.930   6.146
 1299SOL     OW10423   3.912   3.425   7.087
 1299SOL    HW110424   3.959   3.498   7.135
 1299SOL    HW210425   3.922   3.339   7.139
 1300SOL     OW10426   0.342   4.888   1.079
 1300SOL    HW110427   0.341   4.788   1.086
 1300SOL    HW210428   0.418   4.924   1.131
 1301SOL     OW10429   0.213   4.532   0.101
 1301SOL    HW110430   0.278   4.509   0.029
 1301SOL    HW210431   0.227   4.627   0.129
 1302SOL     OW10432   3.339   4.264   0.966
 1302SOL    HW110433   3.363   4.172   0.937
 1302SOL    HW210434   3.240   4.276   0.961
 1303SOL     OW10435   2.158   1.118   6.229
 1303SOL    HW110436   2.256   1.100   6.220
 1303SOL    HW210437   2.116   1.045   6.281
 1304SOL     OW10438   3.150   3.411   5.667
 1304SOL    HW110439   3.150   3.334   5.604
 1304SOL    HW210440   3.075   3.473   5.646
 1305SOL     OW10441   5.164   6.392   0.409
 1305SOL    HW110442   5.122   6.454   0.342
 1305SOL    HW210443   5.243   6.437   0.450
 1306SOL     OW10444   2.424   3.382   0.050
 1306SOL    HW110445   2.439   3.290   0.014
 1306SOL    HW210446   2.333   3.388   0.091
 1307SOL     OW10447   4.446   2.705   1.009
 1307SOL    HW110448   4.384   2.758   1.066
 1307SOL    HW210449   4.400   2.622   0.977
 1308SOL     OW10450   1.450   5.575   7.031
 1308SOL    HW110451   1.385   5.523   7.086
 1308SOL    HW210452   1.414   5.588   6.939
 1309SOL     OW10453   1.751   3.239   1.245
 1309SOL    HW110454   1.776   3.172   1.175
 1309SOL    HW210455   1.652   3.236   1.261
 1310SOL     OW10456   5.748   0.789   0.723
 1310SOL    HW110457   5.798   0.834   0.798
 1310SOL    HW210458   5.723   0.696   0.750
 1311SOL     OW10459   6.455   2.320   1.266
 1311SOL    HW110460   6.450   2.393   1.334
 1311SOL    HW210461   6.539   2.269   1.278
 1312SOL     OW10462   6.170   1.112   1.555
 1312SOL    HW110463   6.108   1.034   1.562
 1312SOL    HW210464   6.180   1.155   1.645
 1313SOL     OW10465   2.074   5.217   0.588
 1313SOL    HW110466   1.976   5.236   0.594
 1313SOL    HW210467   2.092   5.127   0.627
 1314SOL     OW10468   2.849   1.451   5.859
 1314SOL    HW110469   2.794   1.385   5.910
 1314SOL    HW210470   2.930   1.475   5.912
 1315SOL     OW10471   5.561   3.607   0.103
 1315SOL    HW110472   5.534   3.607   0.199
 1315SOL    HW210473   5.497   3.661   0.049
 1316SOL     OW10474   0.272   0.015   1.551
 1316SOL    HW110475   0.216   6.470   1.631
 1316SOL    HW210476   0.360   0.053   1.580
 1317SOL     OW10477   4.020   0.631   5.821
 1317SOL    HW110478   4.020   0.536   5.790
 1317SOL    HW210479   4.050   0.690   5.746
 1318SOL     OW10480   1.053   6.272   6.079
 1318SOL    HW110481   1.034   6.247   5.984
 1318SOL    HW210482   1.029   6.195   6.139
 1319SOL     OW10483   4.750   0.619   7.363
 1319SOL    HW110484   4.694   0.544   7.397
 1319SOL    HW210485   4.771   0.604   7.266
 1320SOL     OW10486   2.189   3.796   1.275
 1320SOL    HW110487   2.197   3.753   1.365
 1320SOL    HW210488   2.105   3.764   1.230
 1321SOL     OW10489   3.099   2.417   1.810
 1321SOL    HW110490   3.062   2.324   1.803
 1321SOL    HW210491   3.161   2.423   1.888
 1322SOL     OW10492   6.026   3.160   1.020
 1322SOL    HW110493   5.939   3.120   0.992
 1322SOL    HW210494   6.071   3.100   1.085
 1323SOL     OW10495   3.663   4.147   0.497
 1323SOL    HW110496   3.718   4.068   0.523
 1323SOL    HW210497   3.721   4.217   0.455
 1324SOL     OW10498   5.632   0.653   6.648
 1324SOL    HW110499   5.689   0.573   6.630
 1324SOL    HW210500   5.542   0.641   6.607
 1325SOL     OW10501   2.654   3.022   7.235
 1325SOL    HW110502   2.678   2.990   7.143
 1325SOL    HW210503   2.693   3.113   7.250
 1326SOL     OW10504   5.239   6.409   0.762
 1326SOL    HW110505   5.253   6.330   0.701
 1326SOL    HW210506   5.325   6.458   0.773
 1327SOL     OW10507   6.524   4.200   1.099
 1327SOL    HW110508   6.503   4.160   1.188
 1327SOL    HW210509   6.440   4.233   1.056
 1328SOL     OW10510   4.728   5.578   0.546
 1328SOL    HW110511   4.722   5.665   0.497
 1328SOL    HW210512   4.668   5.511   0.502
 1329SOL     OW10513   0.173   3.847   6.120
 1329SOL    HW110514   0.245   3.779   6.137
 1329SOL    HW210515   0.169   3.911   6.197
 1330SOL     OW10516   4.852   1.415   0.482
 1330SOL    HW110517   4.825   1.321   0.503
 1330SOL    HW210518   4.835   1.473   0.561
 1331SOL     OW10519   4.591   3.856   5.955
 1331SOL    HW110520   4.512   3.821   6.005
 1331SOL    HW210521   4.563   3.889   5.865
 1332SOL     OW10522   2.618   5.190   6.400
 1332SOL    HW110523   2.620   5.215   6.497
 1332SOL    HW210524   2.618   5.090   6.391
 1333SOL     OW10525   2.826   2.712   6.143
 1333SOL    HW110526   2.782   2.713   6.233
 1333SOL    HW210527   2.847   2.618   6.118
 1334SOL     OW10528   0.884   6.021   0.875
 1334SOL    HW110529   0.938   6.100   0.845
 1334SOL    HW210530   0.851   5.971   0.795
 1335SOL     OW10531   3.383   1.550   0.172
 1335SOL    HW110532   3.444   1.628   0.164
 1335SOL    HW210533   3.314   1.555   0.099
 1336SOL     OW10534   2.564   5.563   0.227
 1336SOL    HW110535   2.514   5.638   0.185
 1336SOL    HW210536   2.500   5.500   0.270
 1337SOL     OW10537   4.272   5.904   6.874
 1337SOL    HW110538   4.256   5.929   6.778
 1337SOL    HW210539   4.228   5.971   6.934
 1338SOL     OW10540   5.616   1.033   0.634
 1338SOL    HW110541   5.692   1.059   0.574
 1338SOL    HW210542   5.639   0.948   0.682
 1339SOL     OW10543   1.193   1.600   0.157
 1339SOL    HW110544   1.120   1.540   0.190
 1339SOL    HW210545   1.155   1.690   0.134
 1340SOL     OW10546   1.759   3.036   0.758
 1340SOL    HW110547   1.671   3.019   0.803
 1340SOL    HW210548   1.749   3.022   0.659
 1341SOL     OW10549   5.843   4.217   0.404
 1341SOL    HW110550   5.897   4.168   0.336
 1341SOL    HW210551   5.850   4.171   0.492
 1342SOL     OW10552   5.282   6.306   6.529
 1342SOL    HW110553   5.321   6.229   6.478
 1342SOL    HW210554   5.342   6.386   6.520
 1343SOL     OW10555   4.843   0.509   1.531
 1343SOL    HW110556   4.866   0.588   1.474
 1343SOL    HW210557   4.928   0.466   1.562
 1344SOL     OW10558   4.789   3.199   7.034
 1344SOL    HW110559   4.802   3.185   7.133
 1344SOL    HW210560   4.742   3.285   7.018
 1345SOL     OW10561   2.121   4.568   0.122
 1345SOL    HW110562   2.192   4.507   0.157
 1345SOL    HW210563   2.081   4.620   0.197
 1346SOL     OW10564   0.935   6.095   6.751
 1346SOL    HW110565   0.947   6.188   6.719
 1346SOL    HW210566   1.024   6.050   6.758
 1347SOL     OW10567   5.435   2.234   0.938
 1347SOL    HW110568   5.525   2.256   0.900
 1347SOL    HW210569   5.367   2.295   0.897
 1348SOL     OW10570   5.306   0.058   5.998
 1348SOL    HW110571   5.250   6.469   6.050
 1348SOL    HW210572   5.401   0.052   6.028
 1349SOL     OW10573   0.326   3.122   1.357
 1349SOL    HW110574   0.268   3.179   1.415
 1349SOL    HW210575   0.351   3.172   1.275
 1350SOL     OW10576   6.008   6.142   0.877
 1350SOL    HW110577   5.956   6.227   0.877
 1350SOL    HW210578   6.065   6.137   0.795
 1351SOL     OW10579   1.560   2.296   1.175
 1351SOL    HW110580   1.571   2.207   1.130
 1351SOL    HW210581   1.481   2.343   1.138
 1352SOL     OW10582   3.412   2.217   0.431
 1352SOL    HW110583   3.437   2.139   0.490
 1352SOL    HW210584   3.318   2.207   0.401
 1353SOL     OW10585   1.466   5.207   0.349
 1353SOL    HW110586   1.414   5.292   0.336
 1353SOL    HW210587   1.433   5.138   0.285
 1354SOL     OW10588   1.003   1.183   6.753
 1354SOL    HW110589   1.065   1.193   6.675
 1354SOL    HW210590   0.977   1.087   6.763
 1355SOL     OW10591   2.146   5.111   1.218
 1355SOL    HW110592   2.130   5.112   1.317
 1355SOL    HW210593   2.229   5.059   1.198
 1356SOL     OW10594   1.265   2.105   5.374
 1356SOL    HW110595   1.197   2.036   5.350
 1356SOL    HW210596   1.251   2.187   5.319
 1357SOL     OW10597   6.169   3.602   7.321
 1357SOL    HW110598   6.155   3.691   7.279
 1357SOL    HW210599   6.238   3.551   7.270
 1358SOL     OW10600   5.541   0.219   1.335
 1358SOL    HW110601   5.595   0.268   1.404
 1358SOL    HW210602   5.465   0.172   1.380
 1359SOL     OW10603   6.384   5.235   1.668
 1359SOL    HW110604   6.393   5.136   1.673
 1359SOL    HW210605   6.383   5.274   1.760
 1360SOL     OW10606   5.149   1.882   5.610
 1360SOL    HW110607   5.188   1.836   5.530
 1360SOL    HW210608   5.164   1.981   5.603
 1361SOL     OW10609   5.690   2.925   0.265
 1361SOL    HW110610   5.637   2.987   0.323
 1361SOL    HW210611   5.686   2.832   0.302
 1362SOL     OW10612   1.737   1.339   6.057
 1362SOL    HW110613   1.791   1.261   6.087
 1362SOL    HW210614   1.750   1.415   6.121
 1363SOL     OW10615   6.076   0.163   6.140
 1363SOL    HW110616   6.001   0.175   6.206
 1363SOL    HW210617   6.106   0.068   6.141
 1364SOL     OW10618   4.015   4.417   0.895
 1364SOL    HW110619   3.941   4.429   0.960
 1364SOL    HW210620   4.044   4.506   0.860
 1365SOL     OW10621   4.043   2.671   0.949
 1365SOL    HW110622   4.034   2.759   0.994
 1365SOL    HW210623   4.019   2.681   0.852
 1366SOL     OW10624   2.722   0.958   0.334
 1366SOL    HW110625   2.727   0.859   0.345
 1366SOL    HW210626   2.669   0.980   0.252
 1367SOL     OW10627   4.646   1.399   0.063
 1367SOL    HW110628   4.594   1.439   7.402
 1367SOL    HW210629   4.591   1.328   0.108
 1368SOL     OW10630   2.244   3.273   6.800
 1368SOL    HW110631   2.258   3.185   6.846
 1368SOL    HW210632   2.333   3.311   6.775
 1369SOL     OW10633   4.885   5.241   6.309
 1369SOL    HW110634   4.871   5.166   6.244
 1369SOL    HW210635   4.877   5.329   6.262
 1370SOL     OW10636   3.433   1.436   6.908
 1370SOL    HW110637   3.499   1.450   6.834
 1370SOL    HW210638   3.482   1.422   6.994
 1371SOL     OW10639   3.489   3.919   0.121
 1371SOL    HW110640   3.586   3.903   0.099
 1371SOL    HW210641   3.482   3.975   0.203
 1372SOL     OW10642   4.456   4.877   6.961
 1372SOL    HW110643   4.418   4.950   6.905
 1372SOL    HW210644   4.421   4.886   7.055
 1373SOL     OW10645   4.297   1.436   6.840
 1373SOL    HW110646   4.308   1.533   6.861
 1373SOL    HW210647   4.257   1.426   6.750
 1374SOL     OW10648   4.623   4.923   0.283
 1374SOL    HW110649   4.690   4.948   0.353
 1374SOL    HW210650   4.652   4.959   0.194
 1375SOL     OW10651   2.842   0.145   0.359
 1375SOL    HW110652   2.898   0.062   0.360
 1375SOL    HW210653   2.902   0.226   0.361
 1376SOL     OW10654   4.327   1.298   7.297
 1376SOL    HW110655   4.266   1.301   7.217
 1376SOL    HW210656   4.385   1.380   7.297
 1377SOL     OW10657   4.517   2.461   0.086
 1377SOL    HW110658   4.424   2.441   0.056
 1377SOL    HW210659   4.525   2.440   0.184
 1378SOL     OW10660   2.072   6.026   6.845
 1378SOL    HW110661   2.167   6.028   6.876
 1378SOL    HW210662   2.014   6.075   6.910
 1379SOL     OW10663   2.433   0.724   0.301
 1379SOL    HW110664   2.418   0.675   0.215
 1379SOL    HW210665   2.528   0.717   0.328
 1380SOL     OW10666   1.449   3.076   6.658
 1380SOL    HW110667   1.522   3.142   6.675
 1380SOL    HW210668   1.450   3.048   6.562
 1381SOL     OW10669   3.074   2.018   1.013
 1381SOL    HW110670   3.042   2.083   1.082
 1381SOL    HW210671   3.002   1.950   0.996
 1382SOL     OW10672   1.115   2.255   0.114
 1382SOL    HW110673   1.180   2.322   0.079
 1382SOL    HW210674   1.064   2.215   0.038
 1383SOL     OW10675   0.419   4.052   6.724
 1383SOL    HW110676   0.393   4.086   6.634
 1383SOL    HW210677   0.504   4.095   6.754
 1384SOL     OW10678   3.831   2.794   0.293
 1384SOL    HW110679   3.801   2.743   0.373
 1384SOL    HW210680   3.848   2.889   0.318
 1385SOL     OW10681   5.038   2.933   5.794
 1385SOL    HW110682   4.997   2.861   5.737
 1385SOL    HW210683   5.023   3.022   5.751
 1386SOL     OW10684   2.533   6.294   0.371
 1386SOL    HW110685   2.550   6.218   0.308
 1386SOL    HW210686   2.575   6.274   0.460
 1387SOL     OW10687   5.513   1.463   0.872
 1387SOL    HW110688   5.565   1.547   0.887
 1387SOL    HW210689   5.438   1.458   0.937
 1388SOL     OW10690   0.255   4.808   5.858
 1388SOL    HW110691   0.342   4.829   5.903
 1388SOL    HW210692   0.196   4.889   5.862
 1389SOL     OW10693   0.537   2.378   0.810
 1389SOL    HW110694   0.481   2.301   0.842
 1389SOL    HW210695   0.540   2.378   0.710
 1390SOL     OW10696   4.658   0.461   6.907
 1390SOL    HW110697   4.581   0.485   6.848
 1390SOL    HW210698   4.711   0.388   6.865
 1391SOL     OW10699   6.226   5.717   1.019
 1391SOL    HW110700   6.256   5.772   0.941
 1391SOL    HW210701   6.170   5.641   0.986
 1392SOL     OW10702   6.373   3.492   7.173
 1392SOL    HW110703   6.400   3.396   7.167
 1392SOL    HW210704   6.445   3.545   7.218
 1393SOL     OW10705   2.589   3.600   0.394
 1393SOL    HW110706   2.544   3.511   0.386
 1393SOL    HW210707   2.686   3.591   0.371
 1394SOL     OW10708   0.835   3.405   0.952
 1394SOL    HW110709   0.912   3.382   1.011
 1394SOL    HW210710   0.829   3.505   0.943
 1395SOL     OW10711   0.973   3.005   0.316
 1395SOL    HW110712   0.944   2.923   0.365
 1395SOL    HW210713   1.007   2.979   0.225
 1396SOL     OW10714   1.800   4.619   1.335
 1396SOL    HW110715   1.719   4.576   1.293
 1396SOL    HW210716   1.830   4.564   1.412
 1397SOL     OW10717   3.498   1.978   6.317
 1397SOL    HW110718   3.541   1.891   6.293
 1397SOL    HW210719   3.552   2.023   6.389
 1398SOL     OW10720   0.764   3.742   6.319
 1398SOL    HW110721   0.791   3.679   6.392
 1398SOL    HW210722   0.667   3.764   6.328
 1399SOL     OW10723   5.261   1.724   1.121
 1399SOL    HW110724   5.278   1.736   1.023
 1399SOL    HW210725   5.308   1.796   1.172
 1400SOL     OW10726   5.215   4.225   0.288
 1400SOL    HW110727   5.298   4.203   0.237
 1400SOL    HW210728   5.197   4.323   0.281
 1401SOL     OW10729   6.037   0.786   6.229
 1401SOL    HW110730   5.955   0.815   6.277
 1401SOL    HW210731   6.013   0.751   6.139
 1402SOL     OW10732   4.574   4.184   2.136
 1402SOL    HW110733   4.541   4.147   2.049
 1402SOL    HW210734   4.500   4.233   2.181
 1403SOL     OW10735   5.433   3.751   5.604
 1403SOL    HW110736   5.491   3.785   5.530
 1403SOL    HW210737   5.443   3.652   5.611
 1404SOL     OW10738   2.025   1.085   1.110
 1404SOL    HW110739   2.092   1.011   1.117
 1404SOL    HW210740   1.949   1.056   1.052
 1405SOL     OW10741   5.804   3.034   6.526
 1405SOL    HW110742   5.878   3.024   6.459
 1405SOL    HW210743   5.799   2.951   6.582
 1406SOL     OW10744   6.404   3.064   2.008
 1406SOL    HW110745   6.500   3.068   1.979
 1406SOL    HW210746   6.354   3.139   1.964
 1407SOL     OW10747   5.696   1.422   7.068
 1407SOL    HW110748   5.696   1.501   7.006
 1407SOL    HW210749   5.692   1.455   7.162
 1408SOL     OW10750   2.167   2.404   7.211
 1408SOL    HW110751   2.118   2.392   7.297
 1408SOL    HW210752   2.188   2.501   7.198
 1409SOL     OW10753   4.969   3.310   5.974
 1409SOL    HW110754   4.898   3.305   5.904
 1409SOL    HW210755   4.972   3.224   6.025
 1410SOL     OW10756   6.044   0.462   0.589
 1410SOL    HW110757   6.116   0.426   0.530
 1410SOL    HW210758   5.960   0.408   0.576
 1411SOL     OW10759   0.735   1.039   1.543
 1411SOL    HW110760   0.797   1.065   1.617
 1411SOL    HW210761   0.641   1.035   1.577
 1412SOL     OW10762   0.908   1.150   1.354
 1412SOL    HW110763   0.838   1.127   1.421
 1412SOL    HW210764   0.960   1.230   1.386
 1413SOL     OW10765   5.438   5.660   0.569
 1413SOL    HW110766   5.397   5.651   0.478
 1413SOL    HW210767   5.421   5.752   0.605
 1414SOL     OW10768   5.833   0.022   0.602
 1414SOL    HW110769   5.760   6.437   0.569
 1414SOL    HW210770   5.922   6.461   0.575
 1415SOL     OW10771   5.276   1.795   5.393
 1415SOL    HW110772   5.206   1.798   5.322
 1415SOL    HW210773   5.366   1.809   5.351
 1416SOL     OW10774   6.140   3.331   5.841
 1416SOL    HW110775   6.194   3.280   5.774
 1416SOL    HW210776   6.057   3.365   5.798
 1417SOL     OW10777   4.344   5.697   7.057
 1417SOL    HW110778   4.311   5.766   6.993
 1417SOL    HW210779   4.353   5.609   7.010
 1418SOL     OW10780   3.961   4.299   7.390
 1418SOL    HW110781   3.916   4.383   0.007
 1418SOL    HW210782   4.000   4.315   7.299
 1419SOL     OW10783   5.062   1.070   5.107
 1419SOL    HW110784   5.157   1.071   5.076
 1419SOL    HW210785   5.013   1.148   5.067
 1420SOL     OW10786   5.950   1.543   7.360
 1420SOL    HW110787   5.860   1.577   7.333
 1420SOL    HW210788   5.961   1.448   7.330
 1421SOL     OW10789   1.734   2.428   0.526
 1421SOL    HW110790   1.737   2.481   0.442
 1421SOL    HW210791   1.814   2.369   0.532
 1422SOL     OW10792   3.921   5.210   1.292
 1422SOL    HW110793   3.979   5.276   1.339
 1422SOL    HW210794   3.903   5.132   1.352
 1423SOL     OW10795   0.174   0.364   6.654
 1423SOL    HW110796   0.169   0.455   6.615
 1423SOL    HW210797   0.182   0.371   6.754
 1424SOL     OW10798   3.467   2.015   0.068
 1424SOL    HW110799   3.372   2.004   0.096
 1424SOL    HW210800   3.472   2.071   7.400
 1425SOL     OW10801   3.831   5.411   1.564
 1425SOL    HW110802   3.796   5.413   1.658
 1425SOL    HW210803   3.806   5.496   1.517
 1426SOL     OW10804   3.488   1.199   6.657
 1426SOL    HW110805   3.394   1.204   6.692
 1426SOL    HW210806   3.486   1.170   6.562
 1427SOL     OW10807   3.605   4.471   0.336
 1427SOL    HW110808   3.688   4.417   0.347
 1427SOL    HW210809   3.573   4.504   0.425
 1428SOL     OW10810   0.327   1.060   5.951
 1428SOL    HW110811   0.241   1.087   5.908
 1428SOL    HW210812   0.403   1.111   5.909
 1429SOL     OW10813   5.426   4.110   0.132
 1429SOL    HW110814   5.514   4.121   0.087
 1429SOL    HW210815   5.431   4.034   0.198
 1430SOL     OW10816   6.524   1.323   0.169
 1430SOL    HW110817   6.525   1.405   0.112
 1430SOL    HW210818   6.466   1.338   0.249
 1431SOL     OW10819   2.641   3.547   1.311
 1431SOL    HW110820   2.553   3.514   1.346
 1431SOL    HW210821   2.694   3.587   1.386
 1432SOL     OW10822   4.502   4.540   5.854
 1432SOL    HW110823   4.560   4.620   5.870
 1432SOL    HW210824   4.465   4.543   5.761
 1433SOL     OW10825   4.124   4.894   6.770
 1433SOL    HW110826   4.211   4.943   6.760
 1433SOL    HW210827   4.134   4.801   6.734
 1434SOL     OW10828   2.641   0.995   1.382
 1434SOL    HW110829   2.570   1.050   1.339
 1434SOL    HW210830   2.729   1.011   1.337
 1435SOL     OW10831   0.159   2.187   0.428
 1435SOL    HW110832   0.085   2.248   0.454
 1435SOL    HW210833   0.152   2.101   0.480
 1436SOL     OW10834   4.550   1.743   0.159
 1436SOL    HW110835   4.466   1.695   0.135
 1436SOL    HW210836   4.609   1.682   0.212
 1437SOL     OW10837   1.623   0.355   0.389
 1437SOL    HW110838   1.536   0.313   0.412
 1437SOL    HW210839   1.607   0.434   0.329
 1438SOL     OW10840   5.558   2.976   6.119
 1438SOL    HW110841   5.528   3.071   6.121
 1438SOL    HW210842   5.483   2.917   6.149
 1439SOL     OW10843   0.150   6.081   6.255
 1439SOL    HW110844   0.106   6.037   6.333
 1439SOL    HW210845   0.248   6.091   6.273
 1440SOL     OW10846   3.414   4.324   0.200
 1440SOL    HW110847   3.414   4.333   0.100
 1440SOL    HW210848   3.485   4.383   0.238
 1441SOL     OW10849   2.491   2.133   0.225
 1441SOL    HW110850   2.568   2.138   0.290
 1441SOL    HW210851   2.526   2.144   0.132
 1442SOL     OW10852   6.419   5.563   0.585
 1442SOL    HW110853   6.364   5.601   0.512
 1442SOL    HW210854   6.496   5.513   0.547
 1443SOL     OW10855   6.052   2.413   1.615
 1443SOL    HW110856   5.975   2.449   1.563
 1443SOL    HW210857   6.025   2.399   1.710
 1444SOL     OW10858   1.831   5.352   1.331
 1444SOL    HW110859   1.846   5.307   1.420
 1444SOL    HW210860   1.756   5.417   1.339
 1445SOL     OW10861   0.615   5.038   6.935
 1445SOL    HW110862   0.519   5.010   6.932
 1445SOL    HW210863   0.649   5.053   6.843
 1446SOL     OW10864   0.137   5.709   6.711
 1446SOL    HW110865   0.058   5.678   6.659
 1446SOL    HW210866   0.213   5.645   6.698
 1447SOL     OW10867   5.320   1.429   0.217
 1447SOL    HW110868   5.348   1.338   0.249
 1447SOL    HW210869   5.231   1.452   0.256
 1448SOL     OW10870   4.262   1.105   1.105
 1448SOL    HW110871   4.219   1.016   1.093
 1448SOL    HW210872   4.208   1.159   1.170
 1449SOL     OW10873   6.470   5.752   0.253
 1449SOL    HW110874   6.478   5.834   0.196
 1449SOL    HW210875   6.554   5.740   0.306
 1450SOL     OW10876   1.540   5.003   6.214
 1450SOL    HW110877   1.447   5.000   6.250
 1450SOL    HW210878   1.576   4.910   6.207
 1451SOL     OW10879   0.648   1.839   6.713
 1451SOL    HW110880   0.638   1.791   6.800
 1451SOL    HW210881   0.584   1.802   6.646
 1452SOL     OW10882   0.026   2.448   6.035
 1452SOL    HW110883   6.551   2.510   5.981
 1452SOL    HW210884   0.099   2.500   6.079
 1453SOL     OW10885   6.362   2.748   7.019
 1453SOL    HW110886   6.333   2.653   7.009
 1453SOL    HW210887   6.409   2.777   6.935
 1454SOL     OW10888   2.111   4.842   6.779
 1454SOL    HW110889   2.018   4.812   6.760
 1454SOL    HW210890   2.114   4.942   6.782
 1455SOL     OW10891   5.689   3.574   1.078
 1455SOL    HW110892   5.724   3.664   1.104
 1455SOL    HW210893   5.691   3.565   0.978
 1456SOL     OW10894   1.903   4.105   6.554
 1456SOL    HW110895   1.981   4.066   6.602
 1456SOL    HW210896   1.933   4.143   6.467
 1457SOL     OW10897   1.111   0.824   0.188
 1457SOL    HW110898   1.210   0.830   0.192
 1457SOL    HW210899   1.078   0.873   0.107
 1458SOL     OW10900   1.339   0.549   6.422
 1458SOL    HW110901   1.286   0.631   6.445
 1458SOL    HW210902   1.333   0.484   6.497
 1459SOL     OW10903   0.749   4.818   0.383
 1459SOL    HW110904   0.775   4.888   0.449
 1459SOL    HW210905   0.782   4.843   0.292
 1460SOL     OW10906   5.829   2.389   6.693
 1460SOL    HW110907   5.757   2.367   6.759
 1460SOL    HW210908   5.788   2.410   6.605
 1461SOL     OW10909   0.304   5.401   6.909
 1461SOL    HW110910   0.313   5.428   6.813
 1461SOL    HW210911   0.298   5.482   6.967
 1462SOL     OW10912   3.579   2.349   2.089
 1462SOL    HW110913   3.654   2.403   2.052
 1462SOL    HW210914   3.535   2.298   2.016
 1463SOL     OW10915   1.264   3.143   7.182
 1463SOL    HW110916   1.301   3.136   7.090
 1463SOL    HW210917   1.166   3.162   7.178
 1464SOL     OW10918   0.676   1.380   1.362
 1464SOL    HW110919   0.641   1.352   1.452
 1464SOL    HW210920   0.749   1.447   1.374
 1465SOL     OW10921   5.387   5.923   0.369
 1465SOL    HW110922   5.380   5.947   0.466
 1465SOL    HW210923   5.339   5.993   0.315
 1466SOL     OW10924   3.006   1.730   0.608
 1466SOL    HW110925   3.064   1.649   0.616
 1466SOL    HW210926   3.063   1.811   0.595
 1467SOL     OW10927   0.087   1.148   5.856
 1467SOL    HW110928   0.093   1.154   5.757
 1467SOL    HW210929   0.002   1.189   5.887
 1468SOL     OW10930   2.567   1.034   0.121
 1468SOL    HW110931   2.471   1.037   0.148
 1468SOL    HW210932   2.597   1.125   0.092
 1469SOL     OW10933   6.210   5.407   7.072
 1469SOL    HW110934   6.153   5.324   7.073
 1469SOL    HW210935   6.208   5.450   7.162
 1470SOL     OW10936   3.937   0.686   0.324
 1470SOL    HW110937   3.908   0.631   0.402
 1470SOL    HW210938   3.995   0.762   0.356
 1471SOL     OW10939   5.246   0.454   0.709
 1471SOL    HW110940   5.289   0.543   0.692
 1471SOL    HW210941   5.151   0.468   0.736
 1472SOL     OW10942   5.911   0.983   6.708
 1472SOL    HW110943   5.825   0.960   6.663
 1472SOL    HW210944   5.940   1.075   6.680
 1473SOL     OW10945   2.079   2.391   0.834
 1473SOL    HW110946   1.985   2.424   0.822
 1473SOL    HW210947   2.079   2.311   0.894
 1474SOL     OW10948   0.422   4.474   7.337
 1474SOL    HW110949   0.499   4.415   7.313
 1474SOL    HW210950   0.455   4.558   7.379
 1475SOL     OW10951   3.982   5.556   0.570
 1475SOL    HW110952   3.895   5.601   0.592
 1475SOL    HW210953   4.039   5.618   0.517
 1476SOL     OW10954   0.786   2.642   6.970
 1476SOL    HW110955   0.765   2.688   7.056
 1476SOL    HW210956   0.717   2.571   6.953
 1477SOL     OW10957   4.339   2.948   5.211
 1477SOL    HW110958   4.417   2.971   5.153
 1477SOL    HW210959   4.304   2.858   5.184
 1478SOL     OW10960   3.095   5.834   1.243
 1478SOL    HW110961   3.014   5.805   1.293
 1478SOL    HW210962   3.170   5.852   1.307
 1479SOL     OW10963   4.900   6.326   0.499
 1479SOL    HW110964   4.885   6.399   0.566
 1479SOL    HW210965   4.989   6.338   0.455
 1480SOL     OW10966   4.464   4.970   6.296
 1480SOL    HW110967   4.511   4.907   6.235
 1480SOL    HW210968   4.365   4.953   6.291
 1481SOL     OW10969   5.991   2.377   1.874
 1481SOL    HW110970   5.929   2.315   1.922
 1481SOL    HW210971   6.065   2.405   1.936
 1482SOL     OW10972   2.070   0.355   0.773
 1482SOL    HW110973   1.984   0.400   0.795
 1482SOL    HW210974   2.145   0.399   0.823
 1483SOL     OW10975   2.865   0.258   6.672
 1483SOL    HW110976   2.934   0.284   6.604
 1483SOL    HW210977   2.891   0.171   6.713
 1484SOL     OW10978   6.411   0.637   0.771
 1484SOL    HW110979   6.326   0.653   0.721
 1484SOL    HW210980   6.487   0.630   0.706
 1485SOL     OW10981   1.159   5.784   1.303
 1485SOL    HW110982   1.190   5.787   1.398
 1485SOL    HW210983   1.228   5.739   1.246
 1486SOL     OW10984   6.111   6.427   6.904
 1486SOL    HW110985   6.156   6.369   6.972
 1486SOL    HW210986   6.140   6.399   6.812
 1487SOL     OW10987   4.865   5.817   6.847
 1487SOL    HW110988   4.888   5.914   6.849
 1487SOL    HW210989   4.796   5.798   6.917
 1488SOL     OW10990   4.917   4.899   6.659
 1488SOL    HW110991   4.885   4.993   6.676
 1488SOL    HW210992   4.941   4.856   6.746
 1489SOL     OW10993   4.688   2.895   5.842
 1489SOL    HW110994   4.758   2.826   5.861
 1489SOL    HW210995   4.705   2.936   5.752
 1490SOL     OW10996   4.252   4.406   7.348
 1490SOL    HW110997   4.200   4.410   0.019
 1490SOL    HW210998   4.189   4.389   7.272
 1491SOL     OW10999   0.755   0.238   7.140
 1491SOL    HW111000   0.725   0.276   7.052
 1491SOL    HW211001   0.677   0.236   7.203
 1492SOL     OW11002   4.382   5.020   0.188
 1492SOL    HW111003   4.407   5.088   0.120
 1492SOL    HW211004   4.464   4.974   0.222
 1493SOL     OW11005   1.749   3.592   7.168
 1493SOL    HW111006   1.826   3.561   7.225
 1493SOL    HW211007   1.737   3.530   7.091
 1494SOL     OW11008   5.337   0.852   6.684
 1494SOL    HW111009   5.364   0.932   6.631
 1494SOL    HW211010   5.283   0.881   6.763
 1495SOL     OW11011   3.307   5.947   6.426
 1495SOL    HW111012   3.385   5.886   6.443
 1495SOL    HW211013   3.241   5.937   6.500
 1496SOL     OW11014   1.357   0.841   0.797
 1496SOL    HW111015   1.305   0.781   0.858
 1496SOL    HW211016   1.451   0.809   0.793
 1497SOL     OW11017   0.942   1.473   5.175
 1497SOL    HW111018   0.861   1.416   5.189
 1497SOL    HW211019   1.023   1.414   5.164
 1498SOL     OW11020   2.720   4.823   6.641
 1498SOL    HW111021   2.679   4.847   6.553
 1498SOL    HW211022   2.767   4.735   6.633
 1499SOL     OW11023   5.027   4.609   1.601
 1499SOL    HW111024   5.082   4.536   1.640
 1499SOL    HW211025   4.932   4.579   1.595
 1500SOL     OW11026   2.788   6.128   6.787
 1500SOL    HW111027   2.789   6.195   6.713
 1500SOL    HW211028   2.734   6.164   6.864
 1501SOL     OW11029   2.152   1.723   7.254
 1501SOL    HW111030   2.201   1.698   7.338
 1501SOL    HW211031   2.170   1.654   7.184
 1502SOL     OW11032   1.040   3.039   6.795
 1502SOL    HW111033   1.058   3.107   6.867
 1502SOL    HW211034   0.946   3.004   6.806
 1503SOL     OW11035   4.776   0.319   0.269
 1503SOL    HW111036   4.680   0.314   0.296
 1503SOL    HW211037   4.833   0.285   0.344
 1504SOL     OW11038   0.460   1.060   0.442
 1504SOL    HW111039   0.547   1.022   0.471
 1504SOL    HW211040   0.396   1.059   0.519
 1505SOL     OW11041   2.599   3.104   0.800
 1505SOL    HW111042   2.516   3.081   0.749
 1505SOL    HW211043   2.669   3.136   0.736
 1506SOL     OW11044   3.982   0.923   1.487
 1506SOL    HW111045   4.051   0.968   1.544
 1506SOL    HW211046   3.970   0.829   1.517
 1507SOL     OW11047   0.068   1.051   0.446
 1507SOL    HW111048   6.577   0.987   0.469
 1507SOL    HW211049   0.117   1.018   0.365
 1508SOL     OW11050   3.067   6.064   7.240
 1508SOL    HW111051   3.081   6.150   7.189
 1508SOL    HW211052   3.105   5.988   7.187
 1509SOL     OW11053   1.828   2.499   0.784
 1509SOL    HW111054   1.841   2.599   0.782
 1509SOL    HW211055   1.782   2.469   0.701
 1510SOL     OW11056   6.129   0.808   5.340
 1510SOL    HW111057   6.116   0.881   5.273
 1510SOL    HW211058   6.078   0.727   5.311
 1511SOL     OW11059   1.074   4.630   6.851
 1511SOL    HW111060   1.050   4.594   6.761
 1511SOL    HW211061   1.017   4.710   6.871
 1512SOL     OW11062   4.421   1.287   2.008
 1512SOL    HW111063   4.380   1.211   1.958
 1512SOL    HW211064   4.500   1.255   2.059
 1513SOL     OW11065   4.854   6.191   6.293
 1513SOL    HW111066   4.872   6.226   6.201
 1513SOL    HW211067   4.916   6.234   6.358
 1514SOL     OW11068   0.623   5.065   5.651
 1514SOL    HW111069   0.710   5.035   5.690
 1514SOL    HW211070   0.590   5.146   5.700
 1515SOL     OW11071   3.694   2.676   7.066
 1515SOL    HW111072   3.688   2.603   6.997
 1515SOL    HW211073   3.749   2.644   7.143
 1516SOL     OW11074   1.089   1.227   0.358
 1516SOL    HW111075   1.188   1.231   0.347
 1516SOL    HW211076   1.048   1.310   0.319
 1517SOL     OW11077   0.164   5.722   0.683
 1517SOL    HW111078   0.147   5.642   0.742
 1517SOL    HW211079   0.171   5.804   0.740
 1518SOL     OW11080   3.919   5.022   1.810
 1518SOL    HW111081   3.984   5.000   1.883
 1518SOL    HW211082   3.970   5.044   1.727
 1519SOL     OW11083   3.887   5.179   1.031
 1519SOL    HW111084   3.887   5.192   1.130
 1519SOL    HW211085   3.981   5.184   0.997
 1520SOL     OW11086   3.445   2.538   1.536
 1520SOL    HW111087   3.353   2.500   1.533
 1520SOL    HW211088   3.441   2.637   1.548
 1521SOL     OW11089   4.903   1.767   6.309
 1521SOL    HW111090   4.978   1.754   6.375
 1521SOL    HW211091   4.941   1.774   6.217
 1522SOL     OW11092   0.102   4.291   6.273
 1522SOL    HW111093   0.182   4.341   6.242
 1522SOL    HW211094   0.025   4.309   6.212
 1523SOL     OW11095   5.882   0.998   6.989
 1523SOL    HW111096   5.951   0.949   7.043
 1523SOL    HW211097   5.900   0.985   6.892
 1524SOL     OW11098   1.704   4.924   1.102
 1524SOL    HW111099   1.633   4.863   1.135
 1524SOL    HW211100   1.714   4.913   1.003
 1525SOL     OW11101   5.960   0.212   1.219
 1525SOL    HW111102   6.040   0.165   1.257
 1525SOL    HW211103   5.987   0.301   1.184
 1526SOL     OW11104   0.028   0.117   0.090
 1526SOL    HW111105   6.526   0.146   0.044
 1526SOL    HW211106   0.031   0.017   0.093
 1527SOL     OW11107   3.010   5.364   0.205
 1527SOL    HW111108   3.079   5.433   0.186
 1527SOL    HW211109   2.927   5.385   0.154
 1528SOL     OW11110   3.324   0.591   6.773
 1528SOL    HW111111   3.392   0.609   6.845
 1528SOL    HW211112   3.358   0.628   6.686
 1529SOL     OW11113   1.537   1.527   0.713
 1529SOL    HW111114   1.534   1.619   0.674
 1529SOL    HW211115   1.445   1.488   0.712
 1530SOL     OW11116   4.261   0.990   6.707
 1530SOL    HW111117   4.314   0.915   6.748
 1530SOL    HW211118   4.164   0.972   6.718
 1531SOL     OW11119   4.457   5.540   0.138
 1531SOL    HW111120   4.442   5.586   0.050
 1531SOL    HW211121   4.538   5.482   0.131
 1532SOL     OW11122   0.015   6.397   6.887
 1532SOL    HW111123   6.527   6.332   6.857
 1532SOL    HW211124   0.091   6.347   6.929
 1533SOL     OW11125   4.479   5.963   6.447
 1533SOL    HW111126   4.408   5.956   6.517
 1533SOL    HW211127   4.512   5.872   6.423
 1534SOL     OW11128   2.520   2.733   0.136
 1534SOL    HW111129   2.547   2.783   0.218
 1534SOL    HW211130   2.508   2.636   0.158
 1535SOL     OW11131   4.665   5.018   0.034
 1535SOL    HW111132   4.598   5.070   7.394
 1535SOL    HW211133   4.702   4.944   7.393
 1536SOL     OW11134   5.496   4.158   1.019
 1536SOL    HW111135   5.533   4.229   1.079
 1536SOL    HW211136   5.398   4.149   1.035
 1537SOL     OW11137   3.932   3.945   1.917
 1537SOL    HW111138   3.938   3.904   2.008
 1537SOL    HW211139   3.988   3.893   1.853
 1538SOL     OW11140   1.210   0.046   6.716
 1538SOL    HW111141   1.200   0.075   6.621
 1538SOL    HW211142   1.300   0.005   6.730
 1539SOL     OW11143   0.909   2.225   1.238
 1539SOL    HW111144   0.882   2.136   1.275
 1539SOL    HW211145   0.966   2.272   1.305
 1540SOL     OW11146   3.900   0.262   0.303
 1540SOL    HW111147   3.858   0.308   0.225
 1540SOL    HW211148   3.997   0.286   0.308
 1541SOL     OW11149   1.656   2.067   0.419
 1541SOL    HW111150   1.706   2.040   0.501
 1541SOL    HW211151   1.670   2.000   0.347
 1542SOL     OW11152   0.390   6.411   6.611
 1542SOL    HW111153   0.396   6.333   6.674
 1542SOL    HW211154   0.432   6.386   6.523
 1543SOL     OW11155   1.926   2.989   6.102
 1543SOL    HW111156   1.967   2.967   6.014
 1543SOL    HW211157   1.978   2.945   6.175
 1544SOL     OW11158   3.853   0.060   1.194
 1544SOL    HW111159   3.784   0.019   1.254
 1544SOL    HW211160   3.809   0.096   1.112
 1545SOL     OW11161   6.093   4.046   6.359
 1545SOL    HW111162   6.064   4.121   6.418
 1545SOL    HW211163   6.013   3.995   6.327
 1546SOL     OW11164   4.712   0.959   1.407
 1546SOL    HW111165   4.764   1.043   1.419
 1546SOL    HW211166   4.615   0.981   1.394
 1547SOL     OW11167   2.992   3.702   0.492
 1547SOL    HW111168   2.949   3.749   0.568
 1547SOL    HW211169   2.924   3.645   0.445
 1548SOL     OW11170   5.813   3.200   5.334
 1548SOL    HW111171   5.872   3.280   5.348
 1548SOL    HW211172   5.718   3.225   5.352
 1549SOL     OW11173   1.052   5.633   6.786
 1549SOL    HW111174   1.046   5.676   6.696
 1549SOL    HW211175   1.015   5.696   6.855
 1550SOL     OW11176   1.028   4.694   0.979
 1550SOL    HW111177   1.127   4.705   0.990
 1550SOL    HW211178   0.995   4.757   0.909
 1551SOL     OW11179   3.011   5.795   0.776
 1551SOL    HW111180   2.980   5.756   0.689
 1551SOL    HW211181   3.025   5.721   0.842
 1552SOL     OW11182   3.406   6.020   0.976
 1552SOL    HW111183   3.470   5.944   0.964
 1552SOL    HW211184   3.400   6.043   1.073
 1553SOL     OW11185   2.019   2.575   0.545
 1553SOL    HW111186   2.064   2.617   0.623
 1553SOL    HW211187   2.006   2.477   0.562
 1554SOL     OW11188   4.642   3.139   5.975
 1554SOL    HW111189   4.646   3.046   5.938
 1554SOL    HW211190   4.686   3.203   5.911
 1555SOL     OW11191   1.374   4.975   1.584
 1555SOL    HW111192   1.425   5.052   1.546
 1555SOL    HW211193   1.323   5.005   1.664
 1556SOL     OW11194   5.862   6.153   5.998
 1556SOL    HW111195   5.822   6.067   6.030
 1556SOL    HW211196   5.960   6.140   5.981
 1557SOL     OW11197   1.895   4.945   6.384
 1557SOL    HW111198   1.893   4.958   6.285
 1557SOL    HW211199   1.920   4.850   6.404
 1558SOL     OW11200   6.109   2.427   6.731
 1558SOL    HW111201   6.163   2.345   6.712
 1558SOL    HW211202   6.014   2.411   6.704
 1559SOL     OW11203   1.567   4.886   0.612
 1559SOL    HW111204   1.576   4.876   0.513
 1559SOL    HW211205   1.532   4.978   0.633
 1560SOL     OW11206   4.620   3.746   6.658
 1560SOL    HW111207   4.647   3.732   6.563
 1560SOL    HW211208   4.540   3.806   6.661
 1561SOL     OW11209   2.074   4.764   5.960
 1561SOL    HW111210   2.118   4.853   5.954
 1561SOL    HW211211   2.072   4.721   5.870
 1562SOL     OW11212   2.422   2.296   1.003
 1562SOL    HW111213   2.406   2.197   0.996
 1562SOL    HW211214   2.386   2.330   1.090
 1563SOL     OW11215   1.798   4.701   5.966
 1563SOL    HW111216   1.764   4.646   5.890
 1563SOL    HW211217   1.896   4.717   5.955
 1564SOL     OW11218   4.223   4.735   0.548
 1564SOL    HW111219   4.259   4.825   0.525
 1564SOL    HW211220   4.217   4.679   0.466
 1565SOL     OW11221   0.843   3.683   0.932
 1565SOL    HW111222   0.821   3.761   0.873
 1565SOL    HW211223   0.816   3.704   1.026
 1566SOL     OW11224   4.921   2.904   1.355
 1566SOL    HW111225   4.983   2.975   1.390
 1566SOL    HW211226   4.935   2.820   1.407
 1567SOL     OW11227   2.375   4.961   1.230
 1567SOL    HW111228   2.454   5.022   1.238
 1567SOL    HW211229   2.406   4.871   1.199
 1568SOL     OW11230   1.326   4.855   7.089
 1568SOL    HW111231   1.420   4.883   7.110
 1568SOL    HW211232   1.327   4.797   7.007
 1569SOL     OW11233   3.655   0.882   5.467
 1569SOL    HW111234   3.624   0.900   5.561
 1569SOL    HW211235   3.713   0.957   5.437
 1570SOL     OW11236   4.838   4.689   0.193
 1570SOL    HW111237   4.798   4.745   0.267
 1570SOL    HW211238   4.814   4.593   0.208
 1571SOL     OW11239   1.470   1.814   7.341
 1571SOL    HW111240   1.462   1.884   7.413
 1571SOL    HW211241   1.512   1.732   7.380
 1572SOL     OW11242   4.171   3.281   6.032
 1572SOL    HW111243   4.099   3.215   6.055
 1572SOL    HW211244   4.150   3.369   6.074
 1573SOL     OW11245   5.952   0.754   5.960
 1573SOL    HW111246   6.027   0.790   5.903
 1573SOL    HW211247   5.875   0.818   5.957
 1574SOL     OW11248   0.657   4.646   0.725
 1574SOL    HW111249   0.736   4.636   0.666
 1574SOL    HW211250   0.686   4.651   0.820
 1575SOL     OW11251   2.675   3.982   6.183
 1575SOL    HW111252   2.708   4.016   6.095
 1575SOL    HW211253   2.576   3.990   6.187
 1576SOL     OW11254   0.015   4.679   0.551
 1576SOL    HW111255   6.527   4.675   0.481
 1576SOL    HW211256   0.105   4.666   0.510
 1577SOL     OW11257   3.767   2.938   7.038
 1577SOL    HW111258   3.742   2.841   7.040
 1577SOL    HW211259   3.866   2.946   7.032
 1578SOL     OW11260   4.957   0.917   5.298
 1578SOL    HW111261   5.004   0.969   5.227
 1578SOL    HW211262   4.921   0.832   5.259
 1579SOL     OW11263   1.403   1.371   6.512
 1579SOL    HW111264   1.417   1.470   6.520
 1579SOL    HW211265   1.490   1.324   6.518
 1580SOL     OW11266   0.901   3.101   0.597
 1580SOL    HW111267   0.819   3.063   0.640
 1580SOL    HW211268   0.896   3.087   0.498
 1581SOL     OW11269   6.387   5.387   1.447
 1581SOL    HW111270   6.337   5.473   1.456
 1581SOL    HW211271   6.386   5.338   1.534
 1582SOL     OW11272   2.360   1.349   6.808
 1582SOL    HW111273   2.322   1.442   6.809
 1582SOL    HW211274   2.322   1.296   6.884
 1583SOL     OW11275   1.920   5.698   1.004
 1583SOL    HW111276   1.940   5.604   1.032
 1583SOL    HW211277   1.832   5.701   0.957
 1584SOL     OW11278   5.463   5.866   6.712
 1584SOL    HW111279   5.467   5.807   6.792
 1584SOL    HW211280   5.370   5.904   6.703
 1585SOL     OW11281   5.092   0.579   7.011
 1585SOL    HW111282   5.164   0.617   7.070
 1585SOL    HW211283   5.107   0.481   6.998
 1586SOL     OW11284   3.129   6.297   7.111
 1586SOL    HW111285   3.078   6.366   7.162
 1586SOL    HW211286   3.135   6.324   7.015
 1587SOL     OW11287   5.980   2.783   5.313
 1587SOL    HW111288   6.058   2.734   5.350
 1587SOL    HW211289   6.003   2.879   5.301
 1588SOL     OW11290   3.612   5.300   0.497
 1588SOL    HW111291   3.615   5.327   0.593
 1588SOL    HW211292   3.556   5.218   0.487
 1589SOL     OW11293   0.845   1.992   1.370
 1589SOL    HW111294   0.834   1.909   1.315
 1589SOL    HW211295   0.897   1.971   1.453
 1590SOL     OW11296   6.309   5.719   6.755
 1590SOL    HW111297   6.243   5.645   6.772
 1590SOL    HW211298   6.387   5.683   6.704
 1591SOL     OW11299   2.520   3.769   0.174
 1591SOL    HW111300   2.549   3.713   0.252
 1591SOL    HW211301   2.531   3.716   0.090
 1592SOL     OW11302   0.907   1.902   6.597
 1592SOL    HW111303   0.826   1.902   6.656
 1592SOL    HW211304   0.930   1.809   6.571
 1593SOL     OW11305   4.297   4.647   1.221
 1593SOL    HW111306   4.319   4.551   1.205
 1593SOL    HW211307   4.380   4.697   1.246
 1594SOL     OW11308   2.703   5.416   7.070
 1594SOL    HW111309   2.612   5.446   7.044
 1594SOL    HW211310   2.734   5.468   7.150
 1595SOL     OW11311   0.010   0.871   6.840
 1595SOL    HW111312   0.065   0.888   6.758
 1595SOL    HW211313   0.060   0.808   6.901
 1596SOL     OW11314   5.932   2.006   5.954
 1596SOL    HW111315   5.977   2.080   6.003
 1596SOL    HW211316   5.997   1.963   5.891
 1597SOL     OW11317   5.260   6.090   0.168
 1597SOL    HW111318   5.163   6.100   0.149
 1597SOL    HW211319   5.304   6.180   0.165
 1598SOL     OW11320   6.391   3.806   4.877
 1598SOL    HW111321   6.429   3.741   4.811
 1598SOL    HW211322   6.310   3.849   4.837
 1599SOL     OW11323   2.114   4.971   0.716
 1599SOL    HW111324   2.082   4.877   0.704
 1599SOL    HW211325   2.090   5.003   0.808
 1600SOL     OW11326   3.071   5.578   0.925
 1600SOL    HW111327   3.138   5.585   0.999
 1600SOL    HW211328   3.116   5.546   0.842
 1601SOL     OW11329   4.792   3.269   5.770
 1601SOL    HW111330   4.866   3.221   5.724
 1601SOL    HW211331   4.723   3.298   5.703
 1602SOL     OW11332   4.354   1.156   6.281
 1602SOL    HW111333   4.319   1.078   6.229
 1602SOL    HW211334   4.398   1.123   6.365
 1603SOL     OW11335   1.051   1.137   0.615
 1603SOL    HW111336   1.059   1.176   0.524
 1603SOL    HW211337   1.143   1.121   0.653
 1604SOL     OW11338   4.722   2.663   1.081
 1604SOL    HW111339   4.786   2.680   1.006
 1604SOL    HW211340   4.628   2.670   1.048
 1605SOL     OW11341   0.816   2.693   6.687
 1605SOL    HW111342   0.825   2.656   6.780
 1605SOL    HW211343   0.906   2.694   6.643
 1606SOL     OW11344   0.544   3.889   0.676
 1606SOL    HW111345   0.491   3.964   0.715
 1606SOL    HW211346   0.490   3.805   0.678
 1607SOL     OW11347   0.212   3.495   1.674
 1607SOL    HW111348   0.194   3.585   1.636
 1607SOL    HW211349   0.206   3.499   1.774
 1608SOL     OW11350   4.836   3.795   0.322
 1608SOL    HW111351   4.841   3.841   0.233
 1608SOL    HW211352   4.820   3.697   0.308
 1609SOL     OW11353   6.500   1.051   7.246
 1609SOL    HW111354   6.484   1.022   7.151
 1609SOL    HW211355   6.471   1.145   7.258
 1610SOL     OW11356   5.608   6.233   7.270
 1610SOL    HW111357   5.628   6.321   7.226
 1610SOL    HW211358   5.592   6.164   7.200
 1611SOL     OW11359   6.477   2.718   0.213
 1611SOL    HW111360   6.413   2.652   0.173
 1611SOL    HW211361   6.430   2.805   0.229
 1612SOL     OW11362   2.365   0.180   6.801
 1612SOL    HW111363   2.397   0.109   6.738
 1612SOL    HW211364   2.440   0.207   6.861
 1613SOL     OW11365   2.888   5.346   6.886
 1613SOL    HW111366   2.839   5.384   6.965
 1613SOL    HW211367   2.849   5.383   6.802
 1614SOL     OW11368   4.949   3.194   6.627
 1614SOL    HW111369   4.889   3.147   6.692
 1614SOL    HW211370   4.949   3.146   6.540
 1615SOL     OW11371   2.608   5.655   6.583
 1615SOL    HW111372   2.517   5.667   6.544
 1615SOL    HW211373   2.647   5.745   6.605
 1616SOL     OW11374   3.621   5.339   0.771
 1616SOL    HW111375   3.686   5.263   0.774
 1616SOL    HW211376   3.556   5.331   0.846
 1617SOL     OW11377   4.048   3.877   6.844
 1617SOL    HW111378   4.000   3.873   6.931
 1617SOL    HW211379   4.135   3.827   6.851
 1618SOL     OW11380   5.927   1.661   1.274
 1618SOL    HW111381   5.879   1.593   1.219
 1618SOL    HW211382   6.001   1.702   1.220
 1619SOL     OW11383   5.876   1.552   0.230
 1619SOL    HW111384   5.913   1.557   0.137
 1619SOL    HW211385   5.788   1.504   0.228
 1620SOL     OW11386   5.387   2.139   0.025
 1620SOL    HW111387   5.293   2.172   0.015
 1620SOL    HW211388   5.387   2.049   0.069
 1621SOL     OW11389   1.184   1.612   7.135
 1621SOL    HW111390   1.179   1.707   7.166
 1621SOL    HW211391   1.092   1.576   7.121
 1622SOL     OW11392   0.205   1.233   0.845
 1622SOL    HW111393   0.277   1.240   0.913
 1622SOL    HW211394   0.188   1.323   0.805
 1623SOL     OW11395   4.566   2.614   4.850
 1623SOL    HW111396   4.471   2.602   4.878
 1623SOL    HW211397   4.583   2.560   4.767
 1624SOL     OW11398   2.248   4.138   5.548
 1624SOL    HW111399   2.312   4.077   5.500
 1624SOL    HW211400   2.224   4.214   5.488
 1625SOL     OW11401   0.837   5.519   0.561
 1625SOL    HW111402   0.872   5.458   0.632
 1625SOL    HW211403   0.739   5.533   0.574
 1626SOL     OW11404   3.764   4.841   5.676
 1626SOL    HW111405   3.815   4.874   5.755
 1626SOL    HW211406   3.826   4.832   5.598
 1627SOL     OW11407   0.482   0.113   6.822
 1627SOL    HW111408   0.388   0.121   6.856
 1627SOL    HW211409   0.483   0.060   6.737
 1628SOL     OW11410   0.245   0.678   0.297
 1628SOL    HW111411   0.223   0.773   0.275
 1628SOL    HW211412   0.342   0.661   0.279
 1629SOL     OW11413   3.025   5.960   1.009
 1629SOL    HW111414   3.038   5.906   0.926
 1629SOL    HW211415   3.066   5.911   1.086
 1630SOL     OW11416   3.877   3.171   7.373
 1630SOL    HW111417   3.862   3.074   7.353
 1630SOL    HW211418   3.790   3.214   7.397
 1631SOL     OW11419   1.834   0.173   5.859
 1631SOL    HW111420   1.926   0.134   5.866
 1631SOL    HW211421   1.792   0.141   5.774
 1632SOL     OW11422   4.015   4.189   2.021
 1632SOL    HW111423   3.943   4.253   2.049
 1632SOL    HW211424   3.973   4.105   1.985
 1633SOL     OW11425   0.418   2.954   7.367
 1633SOL    HW111426   0.433   2.894   7.289
 1633SOL    HW211427   0.502   3.004   7.388
 1634SOL     OW11428   5.635   4.875   0.608
 1634SOL    HW111429   5.708   4.808   0.623
 1634SOL    HW211430   5.634   4.941   0.683
 1635SOL     OW11431   2.253   2.660   7.152
 1635SOL    HW111432   2.208   2.717   7.083
 1635SOL    HW211433   2.269   2.715   7.234
 1636SOL     OW11434   3.150   3.219   6.401
 1636SOL    HW111435   3.051   3.200   6.401
 1636SOL    HW211436   3.182   3.226   6.306
 1637SOL     OW11437   5.106   0.901   1.327
 1637SOL    HW111438   5.115   0.909   1.426
 1637SOL    HW211439   5.176   0.840   1.291
 1638SOL     OW11440   2.242   1.618   6.798
 1638SOL    HW111441   2.334   1.650   6.778
 1638SOL    HW211442   2.199   1.586   6.714
 1639SOL     OW11443   0.533   1.786   1.143
 1639SOL    HW111444   0.490   1.797   1.233
 1639SOL    HW211445   0.466   1.803   1.071
 1640SOL     OW11446   4.550   0.839   6.369
 1640SOL    HW111447   4.474   0.775   6.354
 1640SOL    HW211448   4.583   0.873   6.280
 1641SOL     OW11449   4.656   0.912   6.113
 1641SOL    HW111450   4.640   0.997   6.063
 1641SOL    HW211451   4.597   0.840   6.076
 1642SOL     OW11452   1.659   2.631   7.413
 1642SOL    HW111453   1.736   2.692   7.396
 1642SOL    HW211454   1.647   2.570   7.334
 1643SOL     OW11455   3.046   0.329   0.393
 1643SOL    HW111456   3.116   0.275   0.346
 1643SOL    HW211457   3.081   0.359   0.482
 1644SOL     OW11458   0.368   1.500   6.952
 1644SOL    HW111459   0.309   1.420   6.965
 1644SOL    HW211460   0.336   1.551   6.872
 1645SOL     OW11461   2.768   1.619   6.208
 1645SOL    HW111462   2.805   1.698   6.159
 1645SOL    HW211463   2.669   1.631   6.221
 1646SOL     OW11464   5.223   0.525   5.513
 1646SOL    HW111465   5.313   0.519   5.471
 1646SOL    HW211466   5.201   0.620   5.534
 1647SOL     OW11467   4.213   2.917   0.018
 1647SOL    HW111468   4.311   2.923   0.039
 1647SOL    HW211469   4.201   2.881   7.340
 1648SOL     OW11470   6.221   0.031   1.609
 1648SOL    HW111471   6.318   0.034   1.633
 1648SOL    HW211472   6.167   0.072   1.683
 1649SOL     OW11473   1.191   2.029   5.838
 1649SOL    HW111474   1.254   1.951   5.835
 1649SOL    HW211475   1.220   2.097   5.771
 1650SOL     OW11476   5.984   5.045   1.001
 1650SOL    HW111477   5.939   5.003   0.922
 1650SOL    HW211478   6.083   5.034   0.993
 1651SOL     OW11479   5.044   3.724   0.508
 1651SOL    HW111480   5.118   3.742   0.443
 1651SOL    HW211481   4.956   3.745   0.465
 1652SOL     OW11482   6.025   1.354   5.664
 1652SOL    HW111483   6.019   1.275   5.725
 1652SOL    HW211484   5.966   1.340   5.584
 1653SOL     OW11485   1.237   5.011   5.468
 1653SOL    HW111486   1.242   5.110   5.477
 1653SOL    HW211487   1.178   4.987   5.392
 1654SOL     OW11488   1.649   1.760   6.341
 1654SOL    HW111489   1.737   1.805   6.354
 1654SOL    HW211490   1.577   1.829   6.327
 1655SOL     OW11491   5.188   4.051   0.497
 1655SOL    HW111492   5.199   4.121   0.427
 1655SOL    HW211493   5.201   3.960   0.457
 1656SOL     OW11494   0.497   4.895   5.981
 1656SOL    HW111495   0.561   4.841   5.926
 1656SOL    HW211496   0.542   4.979   6.012
 1657SOL     OW11497   5.131   4.990   0.799
 1657SOL    HW111498   5.089   5.048   0.869
 1657SOL    HW211499   5.086   4.901   0.799
 1658SOL     OW11500   0.228   6.419   5.736
 1658SOL    HW111501   0.246   6.321   5.725
 1658SOL    HW211502   0.164   6.434   5.811
 1659SOL     OW11503   3.533   1.575   0.811
 1659SOL    HW111504   3.496   1.665   0.835
 1659SOL    HW211505   3.574   1.533   0.893
 1660SOL     OW11506   0.261   1.053   0.637
 1660SOL    HW111507   0.246   1.115   0.714
 1660SOL    HW211508   0.187   1.063   0.570
 1661SOL     OW11509   3.930   6.463   6.710
 1661SOL    HW111510   4.025   0.014   6.722
 1661SOL    HW211511   3.880   0.004   6.795
 1662SOL     OW11512   6.009   5.579   6.529
 1662SOL    HW111513   5.944   5.610   6.598
 1662SOL    HW211514   6.004   5.639   6.449
 1663SOL     OW11515   4.901   6.295   6.036
 1663SOL    HW111516   4.853   6.378   6.064
 1663SOL    HW211517   4.865   6.264   5.948
 1664SOL     OW11518   3.607   3.844   0.596
 1664SOL    HW111519   3.692   3.893   0.617
 1664SOL    HW211520   3.554   3.831   0.680
 1665SOL     OW11521   4.231   3.775   0.608
 1665SOL    HW111522   4.162   3.731   0.551
 1665SOL    HW211523   4.318   3.777   0.559
 1666SOL     OW11524   3.197   0.907   6.456
 1666SOL    HW111525   3.117   0.847   6.450
 1666SOL    HW211526   3.194   0.959   6.542
 1667SOL     OW11527   4.166   0.854   1.067
 1667SOL    HW111528   4.192   0.804   0.984
 1667SOL    HW211529   4.219   0.819   1.144
 1668SOL     OW11530   3.934   1.291   0.253
 1668SOL    HW111531   3.883   1.212   0.288
 1668SOL    HW211532   4.017   1.259   0.207
 1669SOL     OW11533   4.772   3.717   6.131
 1669SOL    HW111534   4.845   3.674   6.079
 1669SOL    HW211535   4.714   3.770   6.070
 1670SOL     OW11536   5.863   6.363   6.170
 1670SOL    HW111537   5.963   6.368   6.181
 1670SOL    HW211538   5.840   6.286   6.110
 1671SOL     OW11539   0.938   2.332   0.312
 1671SOL    HW111540   1.008   2.293   0.252
 1671SOL    HW211541   0.861   2.364   0.257
 1672SOL     OW11542   3.349   2.330   5.946
 1672SOL    HW111543   3.255   2.313   5.917
 1672SOL    HW211544   3.382   2.253   6.002
 1673SOL     OW11545   0.299   3.179   0.587
 1673SOL    HW111546   0.212   3.173   0.636
 1673SOL    HW211547   0.302   3.111   0.515
 1674SOL     OW11548   0.174   5.461   5.964
 1674SOL    HW111549   0.265   5.421   5.973
 1674SOL    HW211550   0.106   5.394   5.993
 1675SOL     OW11551   3.900   4.014   6.647
 1675SOL    HW111552   3.863   3.961   6.571
 1675SOL    HW211553   3.956   3.954   6.705
 1676SOL     OW11554   4.499   1.081   7.293
 1676SOL    HW111555   4.439   1.162   7.293
 1676SOL    HW211556   4.455   1.007   7.343
 1677SOL     OW11557   3.212   2.115   7.034
 1677SOL    HW111558   3.308   2.095   7.017
 1677SOL    HW211559   3.204   2.200   7.086
 1678SOL     OW11560   6.336   2.221   7.019
 1678SOL    HW111561   6.243   2.208   6.984
 1678SOL    HW211562   6.346   2.173   7.106
 1679SOL     OW11563   5.497   5.436   6.365
 1679SOL    HW111564   5.517   5.404   6.457
 1679SOL    HW211565   5.581   5.440   6.312
 1680SOL     OW11566   6.055   2.209   6.098
 1680SOL    HW111567   6.019   2.302   6.107
 1680SOL    HW211568   6.154   2.212   6.084
 1681SOL     OW11569   2.421   1.040   6.245
 1681SOL    HW111570   2.417   0.979   6.324
 1681SOL    HW211571   2.474   1.121   6.268
 1682SOL     OW11572   1.945   3.711   1.146
 1682SOL    HW111573   1.940   3.611   1.158
 1682SOL    HW211574   1.878   3.740   1.079
 1683SOL     OW11575   1.188   4.706   7.268
 1683SOL    HW111576   1.161   4.627   7.214
 1683SOL    HW211577   1.242   4.769   7.212
 1684SOL     OW11578   3.272   4.406   6.802
 1684SOL    HW111579   3.269   4.310   6.773
 1684SOL    HW211580   3.315   4.461   6.730
 1685SOL     OW11581   4.635   2.446   0.631
 1685SOL    HW111582   4.696   2.524   0.641
 1685SOL    HW211583   4.604   2.440   0.536
 1686SOL     OW11584   4.972   6.066   6.601
 1686SOL    HW111585   4.930   6.071   6.692
 1686SOL    HW211586   4.971   6.157   6.559
 1687SOL     OW11587   2.402   0.912   6.487
 1687SOL    HW111588   2.483   0.860   6.513
 1687SOL    HW211589   2.404   1.001   6.533
 1688SOL     OW11590   4.100   5.355   6.571
 1688SOL    HW111591   4.146   5.444   6.572
 1688SOL    HW211592   4.007   5.366   6.535
 1689SOL     OW11593   6.176   3.725   6.722
 1689SOL    HW111594   6.079   3.748   6.712
 1689SOL    HW211595   6.190   3.669   6.803
 1690SOL     OW11596   6.193   2.880   0.011
 1690SOL    HW111597   6.244   2.904   0.093
 1690SOL    HW211598   6.095   2.898   0.027
 1691SOL     OW11599   1.488   2.998   6.397
 1691SOL    HW111600   1.563   3.025   6.336
 1691SOL    HW211601   1.402   2.998   6.347
 1692SOL     OW11602   2.758   5.393   1.604
 1692SOL    HW111603   2.843   5.419   1.649
 1692SOL    HW211604   2.684   5.390   1.672
 1693SOL     OW11605   5.058   5.651   0.355
 1693SOL    HW111606   5.157   5.662   0.353
 1693SOL    HW211607   5.021   5.696   0.437
 1694SOL     OW11608   2.271   4.741   6.978
 1694SOL    HW111609   2.218   4.781   6.903
 1694SOL    HW211610   2.287   4.810   7.048
 1695SOL     OW11611   1.826   3.414   0.526
 1695SOL    HW111612   1.867   3.372   0.608
 1695SOL    HW211613   1.750   3.357   0.495
 1696SOL     OW11614   3.253   5.795   7.345
 1696SOL    HW111615   3.284   5.871   7.402
 1696SOL    HW211616   3.328   5.765   7.286
 1697SOL     OW11617   1.734   0.419   7.026
 1697SOL    HW111618   1.662   0.469   7.075
 1697SOL    HW211619   1.692   0.353   6.964
 1698SOL     OW11620   4.721   5.837   0.449
 1698SOL    HW111621   4.695   5.906   0.516
 1698SOL    HW211622   4.793   5.874   0.390
 1699SOL     OW11623   6.403   2.359   6.309
 1699SOL    HW111624   6.337   2.433   6.294
 1699SOL    HW211625   6.482   2.395   6.358
 1700SOL     OW11626   5.158   2.746   5.963
 1700SOL    HW111627   5.119   2.654   5.957
 1700SOL    HW211628   5.109   2.807   5.902
 1701SOL     OW11629   0.420   0.827   6.558
 1701SOL    HW111630   0.482   0.887   6.508
 1701SOL    HW211631   0.471   0.747   6.591
 1702SOL     OW11632   1.097   0.417   6.635
 1702SOL    HW111633   1.076   0.495   6.694
 1702SOL    HW211634   1.014   0.386   6.589
 1703SOL     OW11635   0.799   0.051   6.570
 1703SOL    HW111636   0.815   0.074   6.666
 1703SOL    HW211637   0.740   0.120   6.528
 1704SOL     OW11638   4.933   0.481   0.617
 1704SOL    HW111639   4.962   0.554   0.679
 1704SOL    HW211640   4.858   0.513   0.560
 1705SOL     OW11641   1.101   0.107   1.220
 1705SOL    HW111642   1.025   0.047   1.193
 1705SOL    HW211643   1.121   0.094   1.316
 1706SOL     OW11644   3.712   2.010   0.455
 1706SOL    HW111645   3.685   2.065   0.376
 1706SOL    HW211646   3.634   2.001   0.517
 1707SOL     OW11647   5.003   4.515   2.139
 1707SOL    HW111648   4.997   4.603   2.093
 1707SOL    HW211649   5.068   4.456   2.090
 1708SOL     OW11650   0.603   4.255   6.803
 1708SOL    HW111651   0.568   4.308   6.725
 1708SOL    HW211652   0.540   4.265   6.880
 1709SOL     OW11653   1.515   6.331   0.086
 1709SOL    HW111654   1.486   6.412   0.036
 1709SOL    HW211655   1.460   6.252   0.057
 1710SOL     OW11656   0.844   1.918   7.010
 1710SOL    HW111657   0.934   1.888   6.978
 1710SOL    HW211658   0.807   1.986   6.947
 1711SOL     OW11659   3.774   0.995   5.108
 1711SOL    HW111660   3.849   0.986   5.042
 1711SOL    HW211661   3.738   0.904   5.129
 1712SOL     OW11662   0.046   5.418   0.468
 1712SOL    HW111663   0.122   5.401   0.530
 1712SOL    HW211664   0.018   5.332   0.425
 1713SOL     OW11665   2.542   4.631   0.904
 1713SOL    HW111666   2.482   4.587   0.837
 1713SOL    HW211667   2.630   4.582   0.906
 1714SOL     OW11668   6.404   4.406   5.219
 1714SOL    HW111669   6.501   4.402   5.244
 1714SOL    HW211670   6.381   4.324   5.166
 1715SOL     OW11671   4.262   2.397   0.425
 1715SOL    HW111672   4.204   2.414   0.346
 1715SOL    HW211673   4.208   2.354   0.498
 1716SOL     OW11674   0.680   2.994   0.726
 1716SOL    HW111675   0.686   2.918   0.792
 1716SOL    HW211676   0.610   3.059   0.756
 1717SOL     OW11677   4.962   5.933   5.775
 1717SOL    HW111678   4.924   6.025   5.781
 1717SOL    HW211679   5.014   5.924   5.690
 1718SOL     OW11680   0.668   4.018   1.210
 1718SOL    HW111681   0.661   3.948   1.281
 1718SOL    HW211682   0.581   4.024   1.161
 1719SOL     OW11683   4.390   5.825   1.103
 1719SOL    HW111684   4.325   5.840   1.028
 1719SOL    HW211685   4.361   5.745   1.155
 1720SOL     OW11686   2.858   1.570   0.947
 1720SOL    HW111687   2.872   1.499   0.878
 1720SOL    HW211688   2.794   1.538   1.016
 1721SOL     OW11689   3.156   4.880   7.403
 1721SOL    HW111690   3.217   4.817   0.037
 1721SOL    HW211691   3.161   4.862   7.304
 1722SOL     OW11692   4.069   5.398   1.435
 1722SOL    HW111693   3.983   5.400   1.486
 1722SOL    HW211694   4.100   5.492   1.419
 1723SOL     OW11695   3.085   5.244   6.727
 1723SOL    HW111696   3.064   5.151   6.699
 1723SOL    HW211697   3.020   5.274   6.797
 1724SOL     OW11698   2.431   5.783   0.105
 1724SOL    HW111699   2.525   5.818   0.109
 1724SOL    HW211700   2.367   5.859   0.098
 1725SOL     OW11701   6.164   0.623   7.166
 1725SOL    HW111702   6.178   0.611   7.265
 1725SOL    HW211703   6.223   0.560   7.117
 1726SOL     OW11704   4.343   0.667   6.321
 1726SOL    HW111705   4.336   0.581   6.271
 1726SOL    HW211706   4.255   0.688   6.364
 1727SOL     OW11707   6.534   1.748   6.313
 1727SOL    HW111708   0.012   1.684   6.264
 1727SOL    HW211709   6.580   1.836   6.321
 1728SOL     OW11710   5.416   4.430   6.778
 1728SOL    HW111711   5.356   4.453   6.701
 1728SOL    HW211712   5.389   4.342   6.816
 1729SOL     OW11713   2.503   1.786   1.168
 1729SOL    HW111714   2.599   1.770   1.193
 1729SOL    HW211715   2.456   1.830   1.244
 1730SOL     OW11716   1.781   4.540   0.276
 1730SOL    HW111717   1.808   4.483   0.198
 1730SOL    HW211718   1.682   4.556   0.273
 1731SOL     OW11719   3.961   2.096   6.860
 1731SOL    HW111720   3.896   2.164   6.893
 1731SOL    HW211721   3.986   2.035   6.936
 1732SOL     OW11722   1.038   1.229   6.324
 1732SOL    HW111723   1.076   1.216   6.415
 1732SOL    HW211724   1.021   1.140   6.281
 1733SOL     OW11725   1.841   2.196   0.141
 1733SOL    HW111726   1.820   2.123   0.075
 1733SOL    HW211727   1.757   2.230   0.182
 1734SOL     OW11728   1.680   6.093   1.790
 1734SOL    HW111729   1.718   6.183   1.770
 1734SOL    HW211730   1.589   6.104   1.829
 1735SOL     OW11731   6.117   1.234   1.087
 1735SOL    HW111732   6.172   1.233   1.171
 1735SOL    HW211733   6.035   1.178   1.100
 1736SOL     OW11734   1.710   0.543   0.584
 1736SOL    HW111735   1.762   0.601   0.521
 1736SOL    HW211736   1.671   0.465   0.534
 1737SOL     OW11737   3.545   0.849   1.633
 1737SOL    HW111738   3.510   0.781   1.698
 1737SOL    HW211739   3.579   0.928   1.682
 1738SOL     OW11740   0.383   4.060   5.160
 1738SOL    HW111741   0.337   4.086   5.075
 1738SOL    HW211742   0.467   4.114   5.170
 1739SOL     OW11743   4.793   4.463   1.586
 1739SOL    HW111744   4.727   4.460   1.510
 1739SOL    HW211745   4.848   4.380   1.586
 1740SOL     OW11746   4.433   4.130   6.838
 1740SOL    HW111747   4.336   4.136   6.862
 1740SOL    HW211748   4.461   4.213   6.790
 1741SOL     OW11749   5.987   5.367   5.823
 1741SOL    HW111750   6.004   5.279   5.867
 1741SOL    HW211751   5.930   5.353   5.741
 1742SOL     OW11752   5.578   4.451   7.144
 1742SOL    HW111753   5.508   4.457   7.216
 1742SOL    HW211754   5.668   4.466   7.185
 1743SOL     OW11755   4.647   2.758   5.067
 1743SOL    HW111756   4.605   2.849   5.063
 1743SOL    HW211757   4.627   2.709   4.982
 1744SOL     OW11758   3.821   4.868   0.779
 1744SOL    HW111759   3.822   4.798   0.707
 1744SOL    HW211760   3.759   4.839   0.852
 1745SOL     OW11761   0.470   2.403   0.109
 1745SOL    HW111762   0.408   2.480   0.121
 1745SOL    HW211763   0.428   2.320   0.148
 1746SOL     OW11764   5.102   4.201   0.836
 1746SOL    HW111765   5.160   4.258   0.778
 1746SOL    HW211766   5.042   4.145   0.779
 1747SOL     OW11767   1.473   5.213   7.258
 1747SOL    HW111768   1.526   5.144   7.307
 1747SOL    HW211769   1.527   5.247   7.180
 1748SOL     OW11770   2.423   1.458   7.210
 1748SOL    HW111771   2.348   1.486   7.150
 1748SOL    HW211772   2.390   1.388   7.274
 1749SOL     OW11773   1.675   0.800   6.197
 1749SOL    HW111774   1.682   0.891   6.236
 1749SOL    HW211775   1.644   0.735   6.267
 1750SOL     OW11776   6.312   2.583   5.161
 1750SOL    HW111777   6.397   2.547   5.200
 1750SOL    HW211778   6.260   2.508   5.120
 1751SOL     OW11779   4.500   2.837   0.532
 1751SOL    HW111780   4.411   2.859   0.491
 1751SOL    HW211781   4.498   2.861   0.629
 1752SOL     OW11782   4.195   3.457   0.067
 1752SOL    HW111783   4.233   3.484   7.392
 1752SOL    HW211784   4.174   3.359   0.066
 1753SOL     OW11785   2.722   5.797   6.281
 1753SOL    HW111786   2.742   5.699   6.279
 1753SOL    HW211787   2.787   5.842   6.342
 1754SOL     OW11788   5.947   6.258   6.593
 1754SOL    HW111789   5.918   6.354   6.595
 1754SOL    HW211790   5.897   6.207   6.663
 1755SOL     OW11791   2.977   1.766   1.525
 1755SOL    HW111792   2.935   1.687   1.481
 1755SOL    HW211793   2.919   1.797   1.601
 1756SOL     OW11794   4.706   4.744   5.887
 1756SOL    HW111795   4.765   4.819   5.858
 1756SOL    HW211796   4.756   4.657   5.881
 1757SOL     OW11797   3.992   5.940   0.738
 1757SOL    HW111798   4.006   6.034   0.710
 1757SOL    HW211799   4.031   5.878   0.669
 1758SOL     OW11800   0.823   6.386   5.746
 1758SOL    HW111801   0.855   6.308   5.799
 1758SOL    HW211802   0.895   6.415   5.682
 1759SOL     OW11803   0.884   4.427   0.241
 1759SOL    HW111804   0.788   4.453   0.249
 1759SOL    HW211805   0.939   4.507   0.218
 1760SOL     OW11806   4.132   5.771   5.356
 1760SOL    HW111807   4.097   5.722   5.436
 1760SOL    HW211808   4.155   5.705   5.284
 1761SOL     OW11809   3.072   0.697   5.977
 1761SOL    HW111810   3.050   0.638   5.899
 1761SOL    HW211811   3.060   0.647   6.062
 1762SOL     OW11812   0.998   2.430   7.099
 1762SOL    HW111813   0.951   2.392   7.020
 1762SOL    HW211814   0.939   2.422   7.180
 1763SOL     OW11815   4.707   2.631   6.932
 1763SOL    HW111816   4.672   2.692   6.860
 1763SOL    HW211817   4.736   2.544   6.890
 1764SOL     OW11818   1.449   1.644   6.492
 1764SOL    HW111819   1.369   1.694   6.457
 1764SOL    HW211820   1.529   1.668   6.437
 1765SOL     OW11821   4.588   6.126   6.745
 1765SOL    HW111822   4.611   6.149   6.650
 1765SOL    HW211823   4.577   6.027   6.753
 1766SOL     OW11824   1.885   1.788   7.249
 1766SOL    HW111825   1.984   1.772   7.251
 1766SOL    HW211826   1.854   1.786   7.154
 1767SOL     OW11827   4.623   0.428   0.564
 1767SOL    HW111828   4.578   0.382   0.487
 1767SOL    HW211829   4.616   0.527   0.553
 1768SOL     OW11830   3.934   1.875   0.390
 1768SOL    HW111831   3.853   1.920   0.428
 1768SOL    HW211832   3.959   1.797   0.449
 1769SOL     OW11833   5.273   2.011   0.938
 1769SOL    HW111834   5.209   2.025   1.013
 1769SOL    HW211835   5.342   2.083   0.938
 1770SOL     OW11836   3.806   0.378   0.070
 1770SOL    HW111837   3.849   0.304   0.018
 1770SOL    HW211838   3.862   0.461   0.063
 1771SOL     OW11839   4.134   0.353   4.863
 1771SOL    HW111840   4.091   0.314   4.944
 1771SOL    HW211841   4.075   0.340   4.783
 1772SOL     OW11842   4.236   0.701   0.849
 1772SOL    HW111843   4.309   0.641   0.881
 1772SOL    HW211844   4.155   0.646   0.825
 1773SOL     OW11845   6.374   1.052   1.057
 1773SOL    HW111846   6.360   1.019   1.150
 1773SOL    HW211847   6.304   1.120   1.035
 1774SOL     OW11848   3.510   0.616   6.985
 1774SOL    HW111849   3.529   0.706   7.025
 1774SOL    HW211850   3.529   0.545   7.054
 1775SOL     OW11851   0.360   2.103   6.691
 1775SOL    HW111852   0.337   2.028   6.753
 1775SOL    HW211853   0.357   2.070   6.597
 1776SOL     OW11854   5.528   1.000   6.176
 1776SOL    HW111855   5.450   0.969   6.230
 1776SOL    HW211856   5.521   0.962   6.083
 1777SOL     OW11857   3.743   3.720   6.104
 1777SOL    HW111858   3.725   3.649   6.173
 1777SOL    HW211859   3.712   3.808   6.138
 1778SOL     OW11860   1.747   6.019   6.665
 1778SOL    HW111861   1.841   6.013   6.630
 1778SOL    HW211862   1.725   6.115   6.683
 1779SOL     OW11863   6.214   1.792   0.466
 1779SOL    HW111864   6.142   1.861   0.475
 1779SOL    HW211865   6.172   1.703   0.448
 1780SOL     OW11866   3.238   0.525   7.409
 1780SOL    HW111867   3.168   0.457   0.019
 1780SOL    HW211868   3.329   0.486   0.008
 1781SOL     OW11869   2.012   0.467   0.291
 1781SOL    HW111870   2.058   0.463   0.380
 1781SOL    HW211871   1.953   0.388   0.280
 1782SOL     OW11872   4.446   4.270   0.194
 1782SOL    HW111873   4.475   4.242   0.103
 1782SOL    HW211874   4.431   4.369   0.196
 1783SOL     OW11875   3.195   2.675   1.245
 1783SOL    HW111876   3.129   2.648   1.315
 1783SOL    HW211877   3.252   2.596   1.221
 1784SOL     OW11878   1.351   0.241   1.475
 1784SOL    HW111879   1.275   0.176   1.471
 1784SOL    HW211880   1.437   0.192   1.489
 1785SOL     OW11881   4.303   4.455   0.731
 1785SOL    HW111882   4.233   4.523   0.753
 1785SOL    HW211883   4.261   4.377   0.686
 1786SOL     OW11884   2.364   3.020   0.661
 1786SOL    HW111885   2.318   2.957   0.598
 1786SOL    HW211886   2.295   3.078   0.705
 1787SOL     OW11887   4.961   4.051   0.650
 1787SOL    HW111888   4.881   4.036   0.591
 1787SOL    HW211889   5.043   4.054   0.593
 1788SOL     OW11890   4.890   1.159   1.866
 1788SOL    HW111891   4.891   1.090   1.939
 1788SOL    HW211892   4.866   1.248   1.905
 1789SOL     OW11893   2.561   1.965   5.125
 1789SOL    HW111894   2.642   1.998   5.173
 1789SOL    HW211895   2.585   1.886   5.069
 1790SOL     OW11896   0.467   3.221   6.199
 1790SOL    HW111897   0.451   3.278   6.280
 1790SOL    HW211898   0.393   3.236   6.133
 1791SOL     OW11899   4.680   1.397   5.675
 1791SOL    HW111900   4.581   1.411   5.682
 1791SOL    HW211901   4.721   1.474   5.626
 1792SOL     OW11902   3.534   4.648   2.017
 1792SOL    HW111903   3.624   4.645   2.060
 1792SOL    HW211904   3.509   4.557   1.985
 1793SOL     OW11905   5.792   4.954   6.020
 1793SOL    HW111906   5.763   5.045   6.050
 1793SOL    HW211907   5.720   4.914   5.964
 1794SOL     OW11908   3.042   1.681   7.225
 1794SOL    HW111909   3.064   1.773   7.256
 1794SOL    HW211910   3.036   1.681   7.125
 1795SOL     OW11911   2.065   2.947   0.303
 1795SOL    HW111912   2.125   3.026   0.318
 1795SOL    HW211913   1.986   2.976   0.250
 1796SOL     OW11914   1.005   6.186   5.824
 1796SOL    HW111915   1.041   6.245   5.751
 1796SOL    HW211916   1.028   6.091   5.804
 1797SOL     OW11917   4.834   2.650   5.894
 1797SOL    HW111918   4.906   2.589   5.926
 1797SOL    HW211919   4.744   2.610   5.914
 1798SOL     OW11920   6.387   2.744   7.296
 1798SOL    HW111921   6.313   2.802   7.331
 1798SOL    HW211922   6.385   2.745   7.196
 1799SOL     OW11923   4.179   0.473   7.355
 1799SOL    HW111924   4.098   0.510   7.400
 1799SOL    HW211925   4.154   0.431   7.268
 1800SOL     OW11926   0.909   0.986   1.143
 1800SOL    HW111927   0.917   1.052   1.219
 1800SOL    HW211928   0.863   1.031   1.066
 1801SOL     OW11929   1.676   2.038   6.102
 1801SOL    HW111930   1.749   2.044   6.035
 1801SOL    HW211931   1.707   2.078   6.188
 1802SOL     OW11932   1.441   4.979   6.555
 1802SOL    HW111933   1.532   5.017   6.536
 1802SOL    HW211934   1.451   4.892   6.602
 1803SOL     OW11935   4.669   2.316   7.313
 1803SOL    HW111936   4.627   2.373   7.383
 1803SOL    HW211937   4.653   2.220   7.334
 1804SOL     OW11938   5.596   0.973   6.984
 1804SOL    HW111939   5.696   0.973   6.984
 1804SOL    HW211940   5.563   1.067   6.988
 1805SOL     OW11941   1.565   1.574   0.064
 1805SOL    HW111942   1.480   1.546   0.018
 1805SOL    HW211943   1.559   1.554   0.161
 1806SOL     OW11944   5.057   5.715   0.737
 1806SOL    HW111945   4.957   5.718   0.744
 1806SOL    HW211946   5.093   5.808   0.728
 1807SOL     OW11947   2.973   2.942   5.838
 1807SOL    HW111948   3.008   2.957   5.931
 1807SOL    HW211949   2.943   2.847   5.829
 1808SOL     OW11950   4.985   4.474   6.618
 1808SOL    HW111951   4.929   4.521   6.686
 1808SOL    HW211952   4.935   4.467   6.532
 1809SOL     OW11953   1.626   0.185   6.245
 1809SOL    HW111954   1.561   0.261   6.237
 1809SOL    HW211955   1.719   0.221   6.247
 1810SOL     OW11956   5.389   0.213   6.287
 1810SOL    HW111957   5.292   0.191   6.284
 1810SOL    HW211958   5.406   0.298   6.237
 1811SOL     OW11959   0.671   2.981   1.108
 1811SOL    HW111960   0.658   3.073   1.070
 1811SOL    HW211961   0.642   2.980   1.203
 1812SOL     OW11962   4.711   2.141   6.862
 1812SOL    HW111963   4.758   2.230   6.867
 1812SOL    HW211964   4.613   2.154   6.877
 1813SOL     OW11965   2.743   2.913   0.936
 1813SOL    HW111966   2.773   2.955   1.022
 1813SOL    HW211967   2.685   2.977   0.886
 1814SOL     OW11968   3.428   0.009   1.379
 1814SOL    HW111969   3.520   6.446   1.379
 1814SOL    HW211970   3.399   0.025   1.473
 1815SOL     OW11971   0.290   6.029   7.119
 1815SOL    HW111972   0.345   5.969   7.061
 1815SOL    HW211973   0.194   6.000   7.116
 1816SOL     OW11974   6.382   1.307   7.223
 1816SOL    HW111975   6.338   1.378   7.277
 1816SOL    HW211976   6.312   1.246   7.185
 1817SOL     OW11977   3.098   4.309   0.550
 1817SOL    HW111978   3.137   4.228   0.507
 1817SOL    HW211979   3.000   4.294   0.567
 1818SOL     OW11980   4.762   4.077   5.927
 1818SOL    HW111981   4.712   3.992   5.943
 1818SOL    HW211982   4.699   4.148   5.895
 1819SOL     OW11983   0.899   2.674   0.164
 1819SOL    HW111984   0.959   2.670   0.084
 1819SOL    HW211985   0.822   2.734   0.145
 1820SOL     OW11986   1.715   6.103   5.582
 1820SOL    HW111987   1.655   6.165   5.533
 1820SOL    HW211988   1.808   6.139   5.581
 1821SOL     OW11989   6.206   5.449   0.150
 1821SOL    HW111990   6.217   5.524   0.215
 1821SOL    HW211991   6.259   5.370   0.179
 1822SOL     OW11992   1.572   3.493   0.191
 1822SOL    HW111993   1.556   3.505   0.093
 1822SOL    HW211994   1.486   3.477   0.237
 1823SOL     OW11995   5.686   3.605   6.844
 1823SOL    HW111996   5.707   3.561   6.757
 1823SOL    HW211997   5.587   3.619   6.851
 1824SOL     OW11998   3.803   5.991   5.508
 1824SOL    HW111999   3.730   6.059   5.508
 1824SOL    HW212000   3.857   6.000   5.424
 1825SOL     OW12001   3.291   3.254   6.143
 1825SOL    HW112002   3.390   3.263   6.130
 1825SOL    HW212003   3.245   3.260   6.055
 1826SOL     OW12004   4.271   4.883   1.064
 1826SOL    HW112005   4.211   4.884   0.984
 1826SOL    HW212006   4.291   4.788   1.090
 1827SOL     OW12007   2.864   0.522   6.407
 1827SOL    HW112008   2.918   0.444   6.438
 1827SOL    HW212009   2.767   0.497   6.404
 1828SOL     OW12010   4.173   3.123   0.328
 1828SOL    HW112011   4.234   3.188   0.374
 1828SOL    HW212012   4.161   3.151   0.232
 1829SOL     OW12013   5.230   3.748   5.788
 1829SOL    HW112014   5.301   3.747   5.718
 1829SOL    HW212015   5.227   3.838   5.831
 1830SOL     OW12016   1.226   6.301   0.461
 1830SOL    HW112017   1.170   6.384   0.470
 1830SOL    HW212018   1.250   6.267   0.552
 1831SOL     OW12019   2.272   0.379   0.224
 1831SOL    HW112020   2.180   0.417   0.233
 1831SOL    HW212021   2.328   0.442   0.170
 1832SOL     OW12022   6.116   0.507   6.538
 1832SOL    HW112023   6.101   0.602   6.566
 1832SOL    HW212024   6.106   0.500   6.439
 1833SOL     OW12025   2.749   4.233   7.074
 1833SOL    HW112026   2.814   4.251   7.148
 1833SOL    HW212027   2.656   4.244   7.109
 1834SOL     OW12028   4.787   4.259   0.043
 1834SOL    HW112029   4.870   4.310   0.024
 1834SOL    HW212030   4.764   4.201   7.379
 1835SOL     OW12031   5.525   1.151   1.346
 1835SOL    HW112032   5.492   1.170   1.253
 1835SOL    HW212033   5.618   1.186   1.356
 1836SOL     OW12034   5.766   2.309   7.195
 1836SOL    HW112035   5.747   2.393   7.144
 1836SOL    HW212036   5.685   2.250   7.193
 1837SOL     OW12037   0.428   5.886   1.347
 1837SOL    HW112038   0.342   5.858   1.304
 1837SOL    HW212039   0.411   5.962   1.410
 1838SOL     OW12040   6.060   1.516   6.938
 1838SOL    HW112041   6.014   1.427   6.940
 1838SOL    HW212042   6.156   1.503   6.913
 1839SOL     OW12043   6.580   5.265   7.344
 1839SOL    HW112044   6.495   5.218   7.366
 1839SOL    HW212045   6.578   5.358   7.380
 1840SOL     OW12046   1.185   0.173   7.331
 1840SOL    HW112047   1.116   0.151   7.262
 1840SOL    HW212048   1.265   0.114   7.318
 1841SOL     OW12049   0.702   2.717   6.079
 1841SOL    HW112050   0.638   2.750   6.009
 1841SOL    HW212051   0.653   2.659   6.143
 1842SOL     OW12052   5.170   3.709   6.978
 1842SOL    HW112053   5.123   3.763   6.909
 1842SOL    HW212054   5.124   3.621   6.989
 1843SOL     OW12055   3.057   1.122   7.205
 1843SOL    HW112056   3.008   1.187   7.147
 1843SOL    HW212057   3.114   1.171   7.270
 1844SOL     OW12058   1.390   1.005   7.318
 1844SOL    HW112059   1.405   1.077   7.250
 1844SOL    HW212060   1.406   1.041   7.409
 1845SOL     OW12061   6.557   4.632   6.888
 1845SOL    HW112062   6.519   4.543   6.861
 1845SOL    HW212063   6.570   4.688   6.806
 1846SOL     OW12064   6.372   4.147   5.115
 1846SOL    HW112065   6.423   4.062   5.103
 1846SOL    HW212066   6.300   4.153   5.045
 1847SOL     OW12067   1.195   0.545   0.214
 1847SOL    HW112068   1.229   0.499   0.133
 1847SOL    HW212069   1.165   0.637   0.191
 1848SOL     OW12070   3.000   4.996   6.651
 1848SOL    HW112071   2.962   4.994   6.558
 1848SOL    HW212072   2.926   4.984   6.717
 1849SOL     OW12073   3.223   1.603   6.818
 1849SOL    HW112074   3.296   1.555   6.866
 1849SOL    HW212075   3.174   1.662   6.883
 1850SOL     OW12076   0.397   4.626   1.169
 1850SOL    HW112077   0.356   4.651   1.257
 1850SOL    HW212078   0.496   4.640   1.174
 1851SOL     OW12079   6.329   3.412   6.180
 1851SOL    HW112080   6.358   3.496   6.226
 1851SOL    HW212081   6.235   3.421   6.148
 1852SOL     OW12082   3.593   1.345   7.126
 1852SOL    HW112083   3.644   1.362   7.210
 1852SOL    HW212084   3.513   1.289   7.146
 1853SOL     OW12085   3.520   2.144   0.853
 1853SOL    HW112086   3.596   2.161   0.915
 1853SOL    HW212087   3.440   2.115   0.905
 1854SOL     OW12088   2.546   2.166   6.591
 1854SOL    HW112089   2.607   2.244   6.610
 1854SOL    HW212090   2.469   2.167   6.655
 1855SOL     OW12091   5.621   1.522   1.410
 1855SOL    HW112092   5.709   1.491   1.447
 1855SOL    HW212093   5.615   1.622   1.418
 1856SOL     OW12094   5.944   3.685   1.728
 1856SOL    HW112095   5.977   3.767   1.682
 1856SOL    HW212096   5.899   3.626   1.661
 1857SOL     OW12097   3.696   3.835   0.985
 1857SOL    HW112098   3.781   3.809   0.939
 1857SOL    HW212099   3.700   3.807   1.081
 1858SOL     OW12100   3.109   5.684   6.928
 1858SOL    HW112101   3.171   5.612   6.958
 1858SOL    HW212102   3.138   5.771   6.969
 1859SOL     OW12103   4.146   2.418   6.986
 1859SOL    HW112104   4.135   2.475   7.068
 1859SOL    HW212105   4.185   2.330   7.011
 1860SOL     OW12106   6.178   4.748   1.319
 1860SOL    HW112107   6.139   4.656   1.319
 1860SOL    HW212108   6.278   4.742   1.325
 1861SOL     OW12109   5.467   5.707   6.935
 1861SOL    HW112110   5.455   5.768   7.014
 1861SOL    HW212111   5.411   5.625   6.948
 1862SOL     OW12112   0.686   5.220   7.124
 1862SOL    HW112113   0.777   5.210   7.166
 1862SOL    HW212114   0.674   5.151   7.053
 1863SOL     OW12115   1.242   4.428   6.115
 1863SOL    HW112116   1.164   4.490   6.117
 1863SOL    HW212117   1.326   4.479   6.097
 1864SOL     OW12118   1.204   4.841   0.727
 1864SOL    HW112119   1.226   4.930   0.767
 1864SOL    HW212120   1.280   4.778   0.742
 1865SOL     OW12121   6.528   4.454   7.261
 1865SOL    HW112122   0.039   4.431   7.233
 1865SOL    HW212123   6.522   4.455   7.361
 1866SOL     OW12124   6.094   3.233   6.680
 1866SOL    HW112125   6.067   3.269   6.769
 1866SOL    HW212126   6.122   3.137   6.688
 1867SOL     OW12127   4.367   0.660   7.285
 1867SOL    HW112128   4.435   0.606   7.235
 1867SOL    HW212129   4.293   0.600   7.316
 1868SOL     OW12130   4.502   3.947   5.716
 1868SOL    HW112131   4.413   3.992   5.708
 1868SOL    HW212132   4.560   3.973   5.638
 1869SOL     OW12133   3.505   1.363   5.437
 1869SOL    HW112134   3.594   1.401   5.414
 1869SOL    HW212135   3.448   1.434   5.478
 1870SOL     OW12136   0.763   3.860   1.665
 1870SOL    HW112137   0.674   3.866   1.711
 1870SOL    HW212138   0.811   3.779   1.698
 1871SOL     OW12139   3.514   5.457   1.574
 1871SOL    HW112140   3.479   5.533   1.629
 1871SOL    HW212141   3.538   5.490   1.483
 1872SOL     OW12142   6.149   4.261   0.069
 1872SOL    HW112143   6.144   4.358   0.042
 1872SOL    HW212144   6.245   4.233   0.072
 1873SOL     OW12145   3.095   4.260   7.081
 1873SOL    HW112146   3.040   4.276   7.163
 1873SOL    HW212147   3.179   4.314   7.086
 1874SOL     OW12148   1.522   6.126   7.209
 1874SOL    HW112149   1.456   6.119   7.283
 1874SOL    HW212150   1.534   6.222   7.183
 1875SOL     OW12151   0.981   3.588   0.274
 1875SOL    HW112152   1.013   3.661   0.334
 1875SOL    HW212153   1.060   3.543   0.232
 1876SOL     OW12154   4.543   5.463   1.346
 1876SOL    HW112155   4.591   5.437   1.262
 1876SOL    HW212156   4.602   5.443   1.425
 1877SOL     OW12157   5.708   1.634   6.899
 1877SOL    HW112158   5.712   1.578   6.816
 1877SOL    HW212159   5.790   1.692   6.904
 1878SOL     OW12160   0.281   4.442   1.473
 1878SOL    HW112161   0.311   4.445   1.568
 1878SOL    HW212162   0.284   4.534   1.434
 1879SOL     OW12163   6.368   4.954   6.838
 1879SOL    HW112164   6.307   5.022   6.798
 1879SOL    HW212165   6.367   4.963   6.938
 1880SOL     OW12166   1.289   0.657   6.744
 1880SOL    HW112167   1.276   0.710   6.660
 1880SOL    HW212168   1.200   0.639   6.786
 1881SOL     OW12169   0.055   0.563   1.942
 1881SOL    HW112170   0.124   0.566   2.015
 1881SOL    HW212171   0.010   0.652   1.936
 1882SOL     OW12172   4.645   4.371   1.359
 1882SOL    HW112173   4.590   4.309   1.416
 1882SOL    HW212174   4.724   4.321   1.324
 1883SOL     OW12175   1.053   1.584   6.787
 1883SOL    HW112176   0.981   1.520   6.815
 1883SOL    HW212177   1.141   1.548   6.817
 1884SOL     OW12178   3.718   0.562   6.816
 1884SOL    HW112179   3.641   0.582   6.877
 1884SOL    HW212180   3.750   0.647   6.774
 1885SOL     OW12181   2.855   1.853   6.684
 1885SOL    HW112182   2.821   1.905   6.606
 1885SOL    HW212183   2.874   1.915   6.760
 1886SOL     OW12184   3.144   1.843   6.164
 1886SOL    HW112185   3.179   1.757   6.199
 1886SOL    HW212186   3.173   1.918   6.223
 1887SOL     OW12187   4.882   6.465   7.036
 1887SOL    HW112188   4.931   0.023   7.117
 1887SOL    HW212189   4.941   6.471   6.956
 1888SOL     OW12190   6.418   6.038   0.608
 1888SOL    HW112191   6.481   6.016   0.534
 1888SOL    HW212192   6.464   6.095   0.676
 1889SOL     OW12193   1.909   2.086   5.952
 1889SOL    HW112194   1.933   2.183   5.954
 1889SOL    HW212195   1.974   2.037   5.894
 1890SOL     OW12196   5.585   0.615   0.101
 1890SOL    HW112197   5.630   0.564   0.028
 1890SOL    HW212198   5.645   0.690   0.131
 1891SOL     OW12199   2.037   0.331   6.659
 1891SOL    HW112200   1.938   0.331   6.653
 1891SOL    HW212201   2.068   0.251   6.710
 1892SOL     OW12202   3.709   2.712   0.045
 1892SOL    HW112203   3.697   2.796   7.406
 1892SOL    HW212204   3.743   2.734   0.136
 1893SOL     OW12205   2.338   6.263   0.736
 1893SOL    HW112206   2.281   6.215   0.669
 1893SOL    HW212207   2.285   6.281   0.819
 1894SOL     OW12208   5.099   3.826   0.758
 1894SOL    HW112209   5.046   3.910   0.748
 1894SOL    HW212210   5.084   3.768   0.679
 1895SOL     OW12211   4.372   3.932   6.400
 1895SOL    HW112212   4.376   3.924   6.499
 1895SOL    HW212213   4.456   3.973   6.365
 1896SOL     OW12214   1.362   5.630   1.176
 1896SOL    HW112215   1.407   5.710   1.138
 1896SOL    HW212216   1.417   5.548   1.159
 1897SOL     OW12217   3.051   0.610   6.740
 1897SOL    HW112218   3.038   0.649   6.649
 1897SOL    HW212219   3.148   0.590   6.754
 1898SOL     OW12220   6.566   2.205   5.403
 1898SOL    HW112221   0.082   2.221   5.417
 1898SOL    HW212222   6.553   2.137   5.330
 1899SOL     OW12223   0.053   2.723   0.971
 1899SOL    HW112224   0.101   2.720   1.059
 1899SOL    HW212225   6.536   2.725   0.987
 1900SOL     OW12226   3.839   1.566   5.964
 1900SOL    HW112227   3.921   1.543   5.911
 1900SOL    HW212228   3.762   1.576   5.902
 1901SOL     OW12229   4.955   2.221   6.310
 1901SOL    HW112230   5.011   2.142   6.286
 1901SOL    HW212231   5.005   2.306   6.288
 1902SOL     OW12232   5.481   1.018   5.636
 1902SOL    HW112233   5.439   0.973   5.557
 1902SOL    HW212234   5.554   1.079   5.605
 1903SOL     OW12235   1.037   5.102   6.848
 1903SOL    HW112236   1.002   5.195   6.860
 1903SOL    HW212237   1.134   5.106   6.825
 1904SOL     OW12238   0.520   5.724   6.262
 1904SOL    HW112239   0.580   5.802   6.242
 1904SOL    HW212240   0.467   5.745   6.344
 1905SOL     OW12241   4.576   3.223   6.640
 1905SOL    HW112242   4.649   3.172   6.685
 1905SOL    HW212243   4.603   3.247   6.547
 1906SOL     OW12244   4.464   6.363   1.603
 1906SOL    HW112245   4.444   6.364   1.505
 1906SOL    HW212246   4.477   6.269   1.633
 1907SOL     OW12247   0.927   0.694   0.361
 1907SOL    HW112248   0.875   0.773   0.395
 1907SOL    HW212249   1.003   0.726   0.303
 1908SOL     OW12250   3.002   2.611   1.425
 1908SOL    HW112251   2.973   2.616   1.521
 1908SOL    HW212252   2.926   2.582   1.368
 1909SOL     OW12253   6.235   0.948   5.552
 1909SOL    HW112254   6.334   0.961   5.547
 1909SOL    HW212255   6.204   0.896   5.472
 1910SOL     OW12256   4.253   2.409   0.015
 1910SOL    HW112257   4.192   2.429   0.091
 1910SOL    HW212258   4.218   2.454   7.346
 1911SOL     OW12259   1.223   2.128   7.182
 1911SOL    HW112260   1.296   2.148   7.247
 1911SOL    HW212261   1.228   2.193   7.106
 1912SOL     OW12262   6.375   0.169   7.382
 1912SOL    HW112263   6.347   0.094   7.321
 1912SOL    HW212264   6.295   0.225   7.404
 1913SOL     OW12265   4.600   5.352   0.442
 1913SOL    HW112266   4.675   5.312   0.390
 1913SOL    HW212267   4.515   5.342   0.390
 1914SOL     OW12268   3.418   4.134   6.474
 1914SOL    HW112269   3.463   4.177   6.395
 1914SOL    HW212270   3.450   4.039   6.482
 1915SOL     OW12271   1.515   5.177   1.471
 1915SOL    HW112272   1.560   5.175   1.381
 1915SOL    HW212273   1.446   5.249   1.472
 1916SOL     OW12274   1.384   1.560   6.132
 1916SOL    HW112275   1.437   1.536   6.050
 1916SOL    HW212276   1.356   1.477   6.180
 1917SOL     OW12277   0.296   4.075   0.859
 1917SOL    HW112278   0.229   4.146   0.881
 1917SOL    HW212279   0.253   4.006   0.801
 1918SOL     OW12280   5.227   4.134   1.070
 1918SOL    HW112281   5.195   4.049   1.111
 1918SOL    HW212282   5.177   4.152   0.985
 1919SOL     OW12283   2.691   3.953   6.459
 1919SOL    HW112284   2.687   3.970   6.360
 1919SOL    HW212285   2.786   3.954   6.489
 1920SOL     OW12286   5.673   1.963   0.810
 1920SOL    HW112287   5.709   2.023   0.880
 1920SOL    HW212288   5.612   2.014   0.750
 1921SOL     OW12289   2.930   3.889   6.228
 1921SOL    HW112290   2.832   3.904   6.213
 1921SOL    HW212291   2.942   3.803   6.278
 1922SOL     OW12292   5.734   1.509   6.663
 1922SOL    HW112293   5.646   1.505   6.616
 1922SOL    HW212294   5.793   1.575   6.617
 1923SOL     OW12295   0.400   1.218   6.743
 1923SOL    HW112296   0.362   1.164   6.819
 1923SOL    HW212297   0.327   1.242   6.680
 1924SOL     OW12298   4.923   6.019   7.150
 1924SOL    HW112299   4.883   5.992   7.237
 1924SOL    HW212300   5.005   5.964   7.132
 1925SOL     OW12301   0.847   5.453   0.297
 1925SOL    HW112302   0.767   5.394   0.285
 1925SOL    HW212303   0.862   5.471   0.394
 1926SOL     OW12304   4.398   3.907   6.677
 1926SOL    HW112305   4.418   3.994   6.723
 1926SOL    HW212306   4.350   3.846   6.741
 1927SOL     OW12307   2.332   2.235   0.589
 1927SOL    HW112308   2.324   2.322   0.638
 1927SOL    HW212309   2.320   2.251   0.491
 1928SOL     OW12310   0.662   3.826   1.410
 1928SOL    HW112311   0.717   3.847   1.491
 1928SOL    HW212312   0.570   3.799   1.439
 1929SOL     OW12313   5.539   0.404   5.745
 1929SOL    HW112314   5.601   0.407   5.667
 1929SOL    HW212315   5.590   0.379   5.827
 1930SOL     OW12316   1.714   1.423   1.521
 1930SOL    HW112317   1.761   1.438   1.608
 1930SOL    HW212318   1.619   1.399   1.538
 1931SOL     OW12319   0.841   5.578   7.259
 1931SOL    HW112320   0.758   5.540   7.300
 1931SOL    HW212321   0.817   5.638   7.184
 1932SOL     OW12322   5.711   3.409   0.384
 1932SOL    HW112323   5.629   3.464   0.370
 1932SOL    HW212324   5.780   3.464   0.431
 1933SOL     OW12325   3.719   3.479   0.711
 1933SOL    HW112326   3.754   3.415   0.779
 1933SOL    HW212327   3.621   3.494   0.727
 1934SOL     OW12328   5.682   2.311   0.839
 1934SOL    HW112329   5.652   2.334   0.747
 1934SOL    HW212330   5.780   2.296   0.840
 1935SOL     OW12331   3.343   2.459   1.156
 1935SOL    HW112332   3.380   2.374   1.194
 1935SOL    HW212333   3.417   2.514   1.119
 1936SOL     OW12334   5.454   5.207   0.126
 1936SOL    HW112335   5.492   5.288   0.170
 1936SOL    HW212336   5.354   5.206   0.139
 1937SOL     OW12337   0.184   6.449   0.637
 1937SOL    HW112338   0.246   6.454   0.559
 1937SOL    HW212339   0.096   0.017   0.613
 1938SOL     OW12340   1.942   3.797   1.469
 1938SOL    HW112341   1.941   3.758   1.561
 1938SOL    HW212342   1.860   3.767   1.420
 1939SOL     OW12343   5.313   1.454   1.068
 1939SOL    HW112344   5.302   1.548   1.100
 1939SOL    HW212345   5.223   1.414   1.049
 1940SOL     OW12346   1.518   3.716   1.574
 1940SOL    HW112347   1.433   3.728   1.625
 1940SOL    HW212348   1.594   3.755   1.625
 1941SOL     OW12349   3.573   4.271   6.663
 1941SOL    HW112350   3.512   4.226   6.599
 1941SOL    HW212351   3.602   4.359   6.625
 1942SOL     OW12352   3.284   4.707   1.468
 1942SOL    HW112353   3.326   4.798   1.469
 1942SOL    HW212354   3.220   4.700   1.545
 1943SOL     OW12355   3.130   0.406   0.640
 1943SOL    HW112356   3.218   0.450   0.658
 1943SOL    HW212357   3.062   0.439   0.706
 1944SOL     OW12358   0.256   0.777   0.630
 1944SOL    HW112359   0.261   0.877   0.629
 1944SOL    HW212360   0.341   0.739   0.594
 1945SOL     OW12361   3.070   2.825   6.108
 1945SOL    HW112362   2.973   2.803   6.124
 1945SOL    HW212363   3.111   2.753   6.051
 1946SOL     OW12364   3.187   1.450   0.343
 1946SOL    HW112365   3.263   1.491   0.293
 1946SOL    HW212366   3.173   1.356   0.311
 1947SOL     OW12367   6.271   1.359   0.336
 1947SOL    HW112368   6.229   1.308   0.262
 1947SOL    HW212369   6.213   1.436   0.361
 1948SOL     OW12370   5.739   3.480   6.607
 1948SOL    HW112371   5.821   3.449   6.559
 1948SOL    HW212372   5.680   3.530   6.543
 1949SOL     OW12373   3.632   1.742   6.264
 1949SOL    HW112374   3.567   1.699   6.326
 1949SOL    HW212375   3.711   1.682   6.251
 1950SOL     OW12376   6.007   2.561   6.954
 1950SOL    HW112377   6.034   2.510   7.036
 1950SOL    HW212378   6.041   2.515   6.872
 1951SOL     OW12379   1.186   5.352   5.755
 1951SOL    HW112380   1.206   5.327   5.661
 1951SOL    HW212381   1.099   5.402   5.759
 1952SOL     OW12382   0.256   0.511   6.283
 1952SOL    HW112383   0.355   0.513   6.277
 1952SOL    HW212384   0.227   0.551   6.370
 1953SOL     OW12385   3.679   2.474   6.883
 1953SOL    HW112386   3.761   2.462   6.826
 1953SOL    HW212387   3.602   2.499   6.825
 1954SOL     OW12388   5.579   3.346   0.006
 1954SOL    HW112389   5.483   3.319   0.003
 1954SOL    HW212390   5.587   3.438   0.047
 1955SOL     OW12391   2.975   3.611   5.574
 1955SOL    HW112392   3.036   3.681   5.537
 1955SOL    HW212393   2.934   3.560   5.498
 1956SOL     OW12394   2.044   2.160   0.331
 1956SOL    HW112395   2.039   2.065   0.362
 1956SOL    HW212396   1.975   2.175   0.260
 1957SOL     OW12397   5.816   1.592   6.250
 1957SOL    HW112398   5.825   1.554   6.158
 1957SOL    HW212399   5.836   1.521   6.317
 1958SOL     OW12400   0.213   2.255   6.883
 1958SOL    HW112401   0.273   2.214   6.814
 1958SOL    HW212402   0.268   2.306   6.949
 1959SOL     OW12403   2.450   4.742   1.537
 1959SOL    HW112404   2.438   4.676   1.611
 1959SOL    HW212405   2.395   4.824   1.556
 1960SOL     OW12406   4.052   2.929   6.261
 1960SOL    HW112407   3.993   2.996   6.216
 1960SOL    HW212408   4.140   2.925   6.214
 1961SOL     OW12409   2.893   5.274   0.811
 1961SOL    HW112410   2.984   5.269   0.771
 1961SOL    HW212411   2.897   5.324   0.898
 1962SOL     OW12412   2.871   4.162   0.127
 1962SOL    HW112413   2.969   4.155   0.147
 1962SOL    HW212414   2.827   4.073   0.142
 1963SOL     OW12415   0.286   5.628   7.058
 1963SOL    HW112416   0.191   5.655   7.044
 1963SOL    HW212417   0.346   5.704   7.035
 1964SOL     OW12418   6.484   0.665   6.426
 1964SOL    HW112419   6.409   0.731   6.420
 1964SOL    HW212420   6.451   0.582   6.470
 1965SOL     OW12421   3.737   4.675   1.473
 1965SOL    HW112422   3.710   4.617   1.550
 1965SOL    HW212423   3.686   4.761   1.476
 1966SOL     OW12424   1.422   1.916   6.309
 1966SOL    HW112425   1.359   1.931   6.233
 1966SOL    HW212426   1.405   1.984   6.380
 1967SOL     OW12427   3.624   5.070   1.108
 1967SOL    HW112428   3.711   5.107   1.075
 1967SOL    HW212429   3.584   5.132   1.176
 1968SOL     OW12430   4.588   1.763   7.169
 1968SOL    HW112431   4.621   1.796   7.081
 1968SOL    HW212432   4.666   1.750   7.231
 1969SOL     OW12433   5.459   5.539   5.285
 1969SOL    HW112434   5.423   5.605   5.219
 1969SOL    HW212435   5.428   5.447   5.259
 1970SOL     OW12436   1.045   2.351   1.431
 1970SOL    HW112437   1.062   2.301   1.516
 1970SOL    HW212438   1.130   2.392   1.399
 1971SOL     OW12439   3.555   1.341   0.194
 1971SOL    HW112440   3.486   1.412   0.184
 1971SOL    HW212441   3.525   1.275   0.263
 1972SOL     OW12442   3.557   3.081   5.854
 1972SOL    HW112443   3.622   3.073   5.779
 1972SOL    HW212444   3.464   3.074   5.817
 1973SOL     OW12445   5.000   1.483   5.705
 1973SOL    HW112446   5.013   1.388   5.675
 1973SOL    HW212447   4.929   1.526   5.649
 1974SOL     OW12448   5.330   1.907   6.362
 1974SOL    HW112449   5.384   1.968   6.421
 1974SOL    HW212450   5.389   1.871   6.290
 1975SOL     OW12451   6.540   1.016   6.145
 1975SOL    HW112452   0.044   1.068   6.153
 1975SOL    HW212453   6.559   0.919   6.162
 1976SOL     OW12454   6.382   4.420   0.354
 1976SOL    HW112455   6.283   4.426   0.344
 1976SOL    HW212456   6.404   4.351   0.423
 1977SOL     OW12457   5.166   4.528   0.870
 1977SOL    HW112458   5.200   4.470   0.796
 1977SOL    HW212459   5.085   4.486   0.911
 1978SOL     OW12460   5.510   2.580   6.132
 1978SOL    HW112461   5.455   2.504   6.165
 1978SOL    HW212462   5.509   2.581   6.032
 1979SOL     OW12463   6.149   6.463   0.938
 1979SOL    HW112464   6.148   0.084   0.914
 1979SOL    HW212465   6.237   6.423   0.912
 1980SOL     OW12466   4.161   3.566   1.792
 1980SOL    HW112467   4.225   3.547   1.867
 1980SOL    HW212468   4.080   3.509   1.801
 1981SOL     OW12469   0.082   1.098   6.443
 1981SOL    HW112470   6.565   1.090   6.429
 1981SOL    HW212471   0.128   1.105   6.354
 1982SOL     OW12472   0.790   5.877   0.666
 1982SOL    HW112473   0.853   5.844   0.596
 1982SOL    HW212474   0.698   5.885   0.627
 1983SOL     OW12475   4.323   1.433   1.242
 1983SOL    HW112476   4.348   1.442   1.146
 1983SOL    HW212477   4.240   1.377   1.250
 1984SOL     OW12478   0.667   1.769   0.325
 1984SOL    HW112479   0.576   1.757   0.286
 1984SOL    HW212480   0.729   1.807   0.256
 1985SOL     OW12481   3.298   5.486   6.999
 1985SOL    HW112482   3.368   5.520   7.063
 1985SOL    HW212483   3.269   5.395   7.028
 1986SOL     OW12484   5.070   2.912   0.401
 1986SOL    HW112485   5.007   2.839   0.374
 1986SOL    HW212486   5.056   2.992   0.344
 1987SOL     OW12487   5.949   5.258   0.568
 1987SOL    HW112488   6.016   5.188   0.591
 1987SOL    HW212489   5.866   5.216   0.532
 1988SOL     OW12490   0.794   3.238   6.842
 1988SOL    HW112491   0.776   3.188   6.757
 1988SOL    HW212492   0.713   3.235   6.900
 1989SOL     OW12493   0.782   4.592   6.019
 1989SOL    HW112494   0.749   4.670   5.966
 1989SOL    HW212495   0.705   4.548   6.066
 1990SOL     OW12496   6.142   1.018   6.133
 1990SOL    HW112497   6.216   0.989   6.072
 1990SOL    HW212498   6.104   0.938   6.180
 1991SOL     OW12499   5.575   1.282   6.390
 1991SOL    HW112500   5.673   1.299   6.396
 1991SOL    HW212501   5.547   1.282   6.294
 1992SOL     OW12502   4.377   5.677   7.329
 1992SOL    HW112503   4.287   5.646   7.359
 1992SOL    HW212504   4.376   5.691   7.230
 1993SOL     OW12505   2.963   5.658   0.538
 1993SOL    HW112506   2.889   5.598   0.509
 1993SOL    HW212507   2.965   5.740   0.481
 1994SOL     OW12508   5.728   3.745   7.085
 1994SOL    HW112509   5.711   3.695   7.000
 1994SOL    HW212510   5.735   3.681   7.161
 1995SOL     OW12511   0.552   2.328   7.271
 1995SOL    HW112512   0.650   2.345   7.263
 1995SOL    HW212513   0.519   2.360   7.360
 1996SOL     OW12514   5.952   3.894   7.036
 1996SOL    HW112515   6.029   3.855   7.087
 1996SOL    HW212516   5.870   3.838   7.050
 1997SOL     OW12517   6.391   0.643   5.916
 1997SOL    HW112518   6.351   0.603   5.998
 1997SOL    HW212519   6.353   0.599   5.835
 1998SOL     OW12520   5.391   1.919   1.259
 1998SOL    HW112521   5.437   1.998   1.219
 1998SOL    HW212522   5.395   1.925   1.359
 1999SOL     OW12523   5.620   1.791   1.455
 1999SOL    HW112524   5.690   1.793   1.526
 1999SOL    HW212525   5.545   1.852   1.479
 2000SOL     OW12526   1.457   6.255   6.144
 2000SOL    HW112527   1.525   6.325   6.121
 2000SOL    HW212528   1.447   6.192   6.067
 2001SOL     OW12529   1.738   3.906   6.461
 2001SOL    HW112530   1.731   3.833   6.528
 2001SOL    HW212531   1.801   3.976   6.494
 2002SOL     OW12532   3.334   3.688   6.421
 2002SOL    HW112533   3.302   3.651   6.508
 2002SOL    HW212534   3.409   3.752   6.438
 2003SOL     OW12535   2.212   3.400   2.076
 2003SOL    HW112536   2.252   3.350   1.999
 2003SOL    HW212537   2.257   3.372   2.160
 2004SOL     OW12538   3.419   6.051   1.250
 2004SOL    HW112539   3.518   6.052   1.266
 2004SOL    HW212540   3.377   5.983   1.309
 2005SOL     OW12541   3.981   3.003   0.646
 2005SOL    HW112542   3.906   3.021   0.709
 2005SOL    HW212543   3.949   3.011   0.552
 2006SOL     OW12544   0.248   1.227   7.235
 2006SOL    HW112545   0.177   1.283   7.193
 2006SOL    HW212546   0.244   1.238   7.335
 2007SOL     OW12547   4.021   3.639   6.525
 2007SOL    HW112548   4.084   3.663   6.451
 2007SOL    HW212549   4.049   3.686   6.609
 2008SOL     OW12550   4.434   2.925   7.061
 2008SOL    HW112551   4.428   2.958   6.966
 2008SOL    HW212552   4.484   2.992   7.116
 2009SOL     OW12553   3.571   5.142   6.579
 2009SOL    HW112554   3.499   5.197   6.536
 2009SOL    HW212555   3.529   5.081   6.646
 2010SOL     OW12556   4.477   1.532   7.302
 2010SOL    HW112557   4.420   1.573   7.374
 2010SOL    HW212558   4.508   1.604   7.240
 2011SOL     OW12559   1.115   3.652   0.922
 2011SOL    HW112560   1.016   3.668   0.926
 2011SOL    HW212561   1.163   3.739   0.923
 2012SOL     OW12562   2.109   5.003   7.363
 2012SOL    HW112563   2.127   5.100   7.350
 2012SOL    HW212564   2.086   4.986   0.045
 2013SOL     OW12565   0.674   4.351   7.302
 2013SOL    HW112566   0.755   4.401   7.273
 2013SOL    HW212567   0.693   4.305   7.389
 2014SOL     OW12568   1.942   3.514   7.345
 2014SOL    HW112569   1.938   3.422   7.384
 2014SOL    HW212570   1.914   3.580   0.000
 2015SOL     OW12571   4.395   4.720   1.986
 2015SOL    HW112572   4.476   4.663   2.000
 2015SOL    HW212573   4.411   4.812   2.022
 2016SOL     OW12574   1.525   5.410   1.142
 2016SOL    HW112575   1.556   5.424   1.048
 2016SOL    HW212576   1.541   5.315   1.170
 2017SOL     OW12577   5.159   5.270   6.291
 2017SOL    HW112578   5.190   5.362   6.318
 2017SOL    HW212579   5.064   5.258   6.317
 2018SOL     OW12580   3.416   1.960   5.871
 2018SOL    HW112581   3.487   1.912   5.819
 2018SOL    HW212582   3.336   1.901   5.881
 2019SOL     OW12583   3.985   0.951   4.942
 2019SOL    HW112584   4.006   1.047   4.922
 2019SOL    HW212585   4.049   0.916   5.010
 2020SOL     OW12586   5.025   5.163   1.270
 2020SOL    HW112587   4.985   5.250   1.299
 2020SOL    HW212588   5.098   5.137   1.333
 2021SOL     OW12589   0.124   0.269   6.265
 2021SOL    HW112590   0.103   0.251   6.169
 2021SOL    HW212591   0.176   0.355   6.272
 2022SOL     OW12592   3.028   2.965   7.221
 2022SOL    HW112593   3.073   2.909   7.152
 2022SOL    HW212594   3.008   3.055   7.183
 2023SOL     OW12595   4.649   2.235   1.000
 2023SOL    HW112596   4.558   2.194   0.998
 2023SOL    HW212597   4.697   2.208   1.083
 2024SOL     OW12598   4.876   4.234   1.285
 2024SOL    HW112599   4.929   4.314   1.260
 2024SOL    HW212600   4.934   4.169   1.335
 2025SOL     OW12601   5.188   5.619   6.061
 2025SOL    HW112602   5.179   5.712   6.027
 2025SOL    HW212603   5.099   5.574   6.059
 2026SOL     OW12604   5.311   6.059   6.338
 2026SOL    HW112605   5.288   6.081   6.243
 2026SOL    HW212606   5.400   6.098   6.361
 2027SOL     OW12607   3.193   3.251   5.885
 2027SOL    HW112608   3.226   3.165   5.846
 2027SOL    HW212609   3.179   3.318   5.812
 2028SOL     OW12610   5.828   6.261   1.926
 2028SOL    HW112611   5.815   6.168   1.892
 2028SOL    HW212612   5.810   6.264   2.025
 2029SOL     OW12613   5.855   5.183   6.350
 2029SOL    HW112614   5.808   5.194   6.263
 2029SOL    HW212615   5.794   5.138   6.415
 2030SOL     OW12616   2.746   0.438   1.220
 2030SOL    HW112617   2.757   0.365   1.286
 2030SOL    HW212618   2.748   0.527   1.267
 2031SOL     OW12619   0.414   2.748   1.439
 2031SOL    HW112620   0.361   2.700   1.509
 2031SOL    HW212621   0.501   2.778   1.479
 2032SOL     OW12622   1.714   0.310   5.458
 2032SOL    HW112623   1.658   0.271   5.385
 2032SOL    HW212624   1.658   0.372   5.513
 2033SOL     OW12625   2.733   0.731   5.872
 2033SOL    HW112626   2.701   0.697   5.961
 2033SOL    HW212627   2.770   0.656   5.819
 2034SOL     OW12628   3.081   0.706   1.648
 2034SOL    HW112629   3.027   0.655   1.715
 2034SOL    HW212630   3.171   0.664   1.639
 2035SOL     OW12631   6.250   0.824   6.412
 2035SOL    HW112632   6.203   0.813   6.500
 2035SOL    HW212633   6.187   0.804   6.337
 2036SOL     OW12634   2.319   1.758   6.072
 2036SOL    HW112635   2.246   1.689   6.083
 2036SOL    HW212636   2.281   1.849   6.088
 2037SOL     OW12637   1.542   4.225   6.918
 2037SOL    HW112638   1.612   4.244   6.849
 2037SOL    HW212639   1.549   4.130   6.948
 2038SOL     OW12640   2.312   6.297   1.760
 2038SOL    HW112641   2.362   6.347   1.831
 2038SOL    HW212642   2.257   6.225   1.802
 2039SOL     OW12643   5.850   2.518   1.460
 2039SOL    HW112644   5.911   2.576   1.406
 2039SOL    HW212645   5.777   2.574   1.499
 2040SOL     OW12646   4.592   3.587   0.492
 2040SOL    HW112647   4.623   3.551   0.580
 2040SOL    HW212648   4.575   3.685   0.500
 2041SOL     OW12649   5.031   3.854   6.789
 2041SOL    HW112650   5.040   3.802   6.704
 2041SOL    HW212651   4.936   3.850   6.820
 2042SOL     OW12652   0.729   5.989   5.788
 2042SOL    HW112653   0.749   5.901   5.744
 2042SOL    HW212654   0.666   6.041   5.731
 2043SOL     OW12655   3.744   1.218   4.935
 2043SOL    HW112656   3.841   1.215   4.911
 2043SOL    HW212657   3.724   1.141   4.996
 2044SOL     OW12658   5.638   3.191   0.651
 2044SOL    HW112659   5.720   3.248   0.656
 2044SOL    HW212660   5.662   3.096   0.669
 2045SOL     OW12661   1.788   3.070   6.812
 2045SOL    HW112662   1.744   3.134   6.749
 2045SOL    HW212663   1.818   3.119   6.894
 2046SOL     OW12664   1.484   4.309   6.569
 2046SOL    HW112665   1.474   4.406   6.544
 2046SOL    HW212666   1.504   4.256   6.487
 2047SOL     OW12667   2.049   5.862   6.211
 2047SOL    HW112668   2.130   5.803   6.209
 2047SOL    HW212669   1.987   5.830   6.283
 2048SOL     OW12670   4.703   1.873   6.940
 2048SOL    HW112671   4.704   1.822   6.854
 2048SOL    HW212672   4.707   1.971   6.922
 2049SOL     OW12673   1.201   0.065   6.437
 2049SOL    HW112674   1.191   0.129   6.362
 2049SOL    HW212675   1.158   6.453   6.413
 2050SOL     OW12676   5.406   4.749   1.705
 2050SOL    HW112677   5.314   4.779   1.730
 2050SOL    HW212678   5.409   4.650   1.701
 2051SOL     OW12679   3.180   5.435   1.360
 2051SOL    HW112680   3.146   5.494   1.433
 2051SOL    HW212681   3.230   5.358   1.400
 2052SOL     OW12682   2.317   2.572   0.459
 2052SOL    HW112683   2.320   2.540   0.554
 2052SOL    HW212684   2.308   2.494   0.398
 2053SOL     OW12685   1.532   1.618   1.216
 2053SOL    HW112686   1.532   1.632   1.117
 2053SOL    HW212687   1.596   1.545   1.240
 2054SOL     OW12688   5.072   2.439   6.770
 2054SOL    HW112689   5.098   2.452   6.866
 2054SOL    HW212690   5.107   2.350   6.738
 2055SOL     OW12691   6.474   5.478   7.027
 2055SOL    HW112692   6.380   5.445   7.036
 2055SOL    HW212693   6.532   5.404   6.994
 2056SOL     OW12694   4.417   3.500   1.158
 2056SOL    HW112695   4.507   3.537   1.135
 2056SOL    HW212696   4.421   3.400   1.161
 2057SOL     OW12697   0.767   6.366   6.346
 2057SOL    HW112698   0.783   6.425   6.426
 2057SOL    HW212699   0.829   6.288   6.350
 2058SOL     OW12700   0.591   3.036   1.380
 2058SOL    HW112701   0.492   3.051   1.377
 2058SOL    HW212702   0.611   2.956   1.437
 2059SOL     OW12703   3.321   1.274   0.686
 2059SOL    HW112704   3.285   1.215   0.613
 2059SOL    HW212705   3.401   1.230   0.728
 2060SOL     OW12706   0.266   2.944   0.401
 2060SOL    HW112707   0.335   2.901   0.459
 2060SOL    HW212708   0.183   2.888   0.402
 2061SOL     OW12709   5.765   3.648   5.791
 2061SOL    HW112710   5.776   3.743   5.819
 2061SOL    HW212711   5.731   3.644   5.697
 2062SOL     OW12712   1.037   3.170   6.551
 2062SOL    HW112713   1.029   3.094   6.487
 2062SOL    HW212714   1.041   3.136   6.644
 2063SOL     OW12715   3.395   1.253   6.118
 2063SOL    HW112716   3.365   1.160   6.137
 2063SOL    HW212717   3.346   1.317   6.177
 2064SOL     OW12718   5.581   1.701   6.340
 2064SOL    HW112719   5.669   1.670   6.306
 2064SOL    HW212720   5.514   1.698   6.266
 2065SOL     OW12721   2.416   5.306   0.949
 2065SOL    HW112722   2.479   5.309   1.026
 2065SOL    HW212723   2.437   5.228   0.891
 2066SOL     OW12724   1.128   2.692   6.028
 2066SOL    HW112725   1.202   2.653   5.972
 2066SOL    HW212726   1.041   2.652   5.999
 2067SOL     OW12727   1.025   0.594   0.607
 2067SOL    HW112728   0.970   0.649   0.670
 2067SOL    HW212729   0.991   0.607   0.514
 2068SOL     OW12730   2.754   5.923   1.044
 2068SOL    HW112731   2.723   6.002   0.990
 2068SOL    HW212732   2.853   5.916   1.037
 2069SOL     OW12733   0.338   0.777   1.267
 2069SOL    HW112734   0.258   0.836   1.269
 2069SOL    HW212735   0.352   0.742   1.174
 2070SOL     OW12736   6.334   1.723   0.073
 2070SOL    HW112737   6.259   1.765   0.022
 2070SOL    HW212738   6.362   1.783   0.148
 2071SOL     OW12739   2.759   4.249   1.745
 2071SOL    HW112740   2.829   4.228   1.677
 2071SOL    HW212741   2.795   4.232   1.836
 2072SOL     OW12742   4.812   5.143   6.732
 2072SOL    HW112743   4.760   5.187   6.658
 2072SOL    HW212744   4.757   5.144   6.816
 2073SOL     OW12745   1.151   3.507   6.317
 2073SOL    HW112746   1.190   3.439   6.378
 2073SOL    HW212747   1.116   3.584   6.371
 2074SOL     OW12748   2.630   1.304   6.833
 2074SOL    HW112749   2.534   1.324   6.815
 2074SOL    HW212750   2.657   1.344   6.921
 2075SOL     OW12751   4.941   5.726   6.226
 2075SOL    HW112752   4.983   5.798   6.281
 2075SOL    HW212753   4.922   5.761   6.134
 2076SOL     OW12754   5.970   2.483   6.123
 2076SOL    HW112755   5.894   2.520   6.176
 2076SOL    HW212756   6.050   2.542   6.134
 2077SOL     OW12757   4.988   1.707   1.160
 2077SOL    HW112758   5.086   1.721   1.146
 2077SOL    HW212759   4.974   1.629   1.222
 2078SOL     OW12760   2.734   0.904   5.652
 2078SOL    HW112761   2.747   0.853   5.737
 2078SOL    HW212762   2.724   0.840   5.576
 2079SOL     OW12763   6.341   4.938   7.122
 2079SOL    HW112764   6.378   4.846   7.132
 2079SOL    HW212765   6.242   4.933   7.107
 2080SOL     OW12766   2.671   1.013   7.160
 2080SOL    HW112767   2.705   0.930   7.114
 2080SOL    HW212768   2.732   1.035   7.237
 2081SOL     OW12769   4.485   2.946   0.067
 2081SOL    HW112770   4.515   2.979   0.156
 2081SOL    HW212771   4.531   2.859   0.046
 2082SOL     OW12772   6.511   3.877   0.771
 2082SOL    HW112773   6.480   3.782   0.766
 2082SOL    HW212774   0.023   3.884   0.736
 2083SOL     OW12775   6.410   3.649   6.293
 2083SOL    HW112776   6.376   3.620   6.383
 2083SOL    HW212777   6.460   3.735   6.302
 2084SOL     OW12778   3.468   4.824   6.622
 2084SOL    HW112779   3.415   4.898   6.664
 2084SOL    HW212780   3.553   4.811   6.673
 2085SOL     OW12781   6.262   1.511   1.368
 2085SOL    HW112782   6.312   1.591   1.400
 2085SOL    HW212783   6.237   1.523   1.271
 2086SOL     OW12784   2.526   4.046   0.173
 2086SOL    HW112785   2.530   3.946   0.178
 2086SOL    HW212786   2.549   4.076   0.080
 2087SOL     OW12787   2.738   2.079   6.099
 2087SOL    HW112788   2.672   2.011   6.131
 2087SOL    HW212789   2.691   2.151   6.049
 2088SOL     OW12790   5.174   1.215   7.042
 2088SOL    HW112791   5.173   1.299   6.987
 2088SOL    HW212792   5.236   1.226   7.119
 2089SOL     OW12793   1.496   0.801   5.975
 2089SOL    HW112794   1.511   0.852   5.891
 2089SOL    HW212795   1.569   0.822   6.040
 2090SOL     OW12796   5.757   2.955   5.462
 2090SOL    HW112797   5.787   3.041   5.419
 2090SOL    HW212798   5.707   2.901   5.395
 2091SOL     OW12799   1.947   2.954   7.142
 2091SOL    HW112800   2.029   2.975   7.195
 2091SOL    HW212801   1.906   3.038   7.108
 2092SOL     OW12802   0.557   3.207   6.979
 2092SOL    HW112803   0.474   3.263   6.966
 2092SOL    HW212804   0.538   3.113   6.954
 2093SOL     OW12805   5.176   1.466   6.912
 2093SOL    HW112806   5.192   1.560   6.944
 2093SOL    HW212807   5.208   1.458   6.818
 2094SOL     OW12808   3.221   6.244   6.628
 2094SOL    HW112809   3.285   6.226   6.703
 2094SOL    HW212810   3.253   6.320   6.573
 2095SOL     OW12811   2.388   0.476   0.643
 2095SOL    HW112812   2.474   0.522   0.622
 2095SOL    HW212813   2.399   0.377   0.634
 2096SOL     OW12814   1.193   4.169   6.201
 2096SOL    HW112815   1.201   4.266   6.178
 2096SOL    HW212816   1.122   4.127   6.144
 2097SOL     OW12817   2.876   0.617   7.240
 2097SOL    HW112818   2.846   0.523   7.259
 2097SOL    HW212819   2.971   0.616   7.210
 2098SOL     OW12820   2.125   3.657   6.776
 2098SOL    HW112821   2.213   3.702   6.763
 2098SOL    HW212822   2.124   3.569   6.727
 2099SOL     OW12823   6.024   1.138   5.827
 2099SOL    HW112824   6.055   1.043   5.817
 2099SOL    HW212825   6.085   1.185   5.891
 2100SOL     OW12826   3.752   6.321   1.648
 2100SOL    HW112827   3.663   6.338   1.689
 2100SOL    HW212828   3.812   6.277   1.715
 2101SOL     OW12829   6.230   2.819   0.904
 2101SOL    HW112830   6.287   2.742   0.875
 2101SOL    HW212831   6.134   2.791   0.908
 2102SOL     OW12832   3.094   3.726   6.839
 2102SOL    HW112833   3.144   3.678   6.766
 2102SOL    HW212834   3.126   3.820   6.845
 2103SOL     OW12835   5.678   5.101   6.549
 2103SOL    HW112836   5.619   5.181   6.546
 2103SOL    HW212837   5.737   5.105   6.629
 2104SOL     OW12838   6.315   3.469   0.301
 2104SOL    HW112839   6.335   3.474   0.399
 2104SOL    HW212840   6.321   3.561   0.262
 2105SOL     OW12841   3.626   4.922   0.301
 2105SOL    HW112842   3.578   4.994   0.351
 2105SOL    HW212843   3.720   4.915   0.335
 2106SOL     OW12844   5.038   3.473   7.017
 2106SOL    HW112845   4.981   3.461   7.098
 2106SOL    HW212846   4.984   3.452   6.935
 2107SOL     OW12847   2.065   0.772   1.596
 2107SOL    HW112848   2.065   0.675   1.620
 2107SOL    HW212849   2.045   0.827   1.677
 2108SOL     OW12850   2.763   0.779   7.042
 2108SOL    HW112851   2.840   0.800   6.983
 2108SOL    HW212852   2.792   0.718   7.115
 2109SOL     OW12853   5.742   2.536   7.032
 2109SOL    HW112854   5.835   2.548   6.996
 2109SOL    HW212855   5.711   2.622   7.071
 2110SOL     OW12856   4.630   0.356   5.766
 2110SOL    HW112857   4.537   0.365   5.730
 2110SOL    HW212858   4.695   0.388   5.697
 2111SOL     OW12859   4.878   4.847   1.232
 2111SOL    HW112860   4.813   4.913   1.271
 2111SOL    HW212861   4.866   4.843   1.133
 2112SOL     OW12862   6.096   3.174   6.064
 2112SOL    HW112863   6.126   3.226   5.984
 2112SOL    HW212864   6.000   3.194   6.083
 2113SOL     OW12865   6.189   1.260   6.009
 2113SOL    HW112866   6.174   1.190   6.078
 2113SOL    HW212867   6.158   1.349   6.043
 2114SOL     OW12868   2.821   2.803   6.596
 2114SOL    HW112869   2.816   2.729   6.663
 2114SOL    HW212870   2.778   2.774   6.511
 2115SOL     OW12871   3.816   5.967   0.957
 2115SOL    HW112872   3.849   5.932   1.045
 2115SOL    HW212873   3.886   5.949   0.887
 2116SOL     OW12874   1.085   0.057   0.525
 2116SOL    HW112875   1.016   0.123   0.496
 2116SOL    HW212876   1.171   0.104   0.545
 2117SOL     OW12877   5.695   3.222   6.688
 2117SOL    HW112878   5.716   3.316   6.664
 2117SOL    HW212879   5.748   3.160   6.629
 2118SOL     OW12880   5.388   4.195   5.987
 2118SOL    HW112881   5.373   4.291   6.009
 2118SOL    HW212882   5.473   4.163   6.027
 2119SOL     OW12883   5.051   3.134   0.233
 2119SOL    HW112884   5.036   3.094   0.142
 2119SOL    HW212885   5.149   3.152   0.245
 2120SOL     OW12886   0.072   1.280   6.843
 2120SOL    HW112887   6.556   1.263   6.829
 2120SOL    HW212888   0.115   1.298   6.754
 2121SOL     OW12889   2.597   3.025   5.846
 2121SOL    HW112890   2.643   3.075   5.773
 2121SOL    HW212891   2.530   3.085   5.890
 2122SOL     OW12892   1.567   3.323   0.745
 2122SOL    HW112893   1.592   3.292   0.653
 2122SOL    HW212894   1.505   3.258   0.787
 2123SOL     OW12895   5.739   5.109   0.464
 2123SOL    HW112896   5.713   5.023   0.508
 2123SOL    HW212897   5.796   5.089   0.384
 2124SOL     OW12898   1.045   0.967   6.198
 2124SOL    HW112899   1.142   0.966   6.175
 2124SOL    HW212900   0.991   0.977   6.114
 2125SOL     OW12901   5.348   2.704   1.834
 2125SOL    HW112902   5.327   2.796   1.868
 2125SOL    HW212903   5.448   2.691   1.835
 2126SOL     OW12904   3.012   5.695   5.745
 2126SOL    HW112905   2.972   5.787   5.739
 2126SOL    HW212906   2.940   5.627   5.736
 2127SOL     OW12907   1.867   0.628   6.670
 2127SOL    HW112908   1.892   0.629   6.766
 2127SOL    HW212909   1.791   0.564   6.655
 2128SOL     OW12910   4.483   5.495   0.820
 2128SOL    HW112911   4.460   5.558   0.746
 2128SOL    HW212912   4.504   5.405   0.783
 2129SOL     OW12913   1.836   0.260   0.248
 2129SOL    HW112914   1.758   0.288   0.304
 2129SOL    HW212915   1.816   0.274   0.151
 2130SOL     OW12916   3.877   6.230   7.138
 2130SOL    HW112917   3.808   6.303   7.143
 2130SOL    HW212918   3.832   6.141   7.135
 2131SOL     OW12919   0.594   2.567   6.287
 2131SOL    HW112920   0.640   2.529   6.367
 2131SOL    HW212921   0.529   2.637   6.316
 2132SOL     OW12922   2.740   0.361   6.142
 2132SOL    HW112923   2.834   0.341   6.115
 2132SOL    HW212924   2.716   0.453   6.114
 2133SOL     OW12925   2.446   4.287   6.296
 2133SOL    HW112926   2.516   4.292   6.368
 2133SOL    HW212927   2.491   4.282   6.207
 2134SOL     OW12928   1.964   1.505   1.120
 2134SOL    HW112929   2.000   1.437   1.182
 2134SOL    HW212930   1.941   1.462   1.032
 2135SOL     OW12931   5.410   6.329   5.754
 2135SOL    HW112932   5.477   6.399   5.776
 2135SOL    HW212933   5.430   6.246   5.804
 2136SOL     OW12934   1.631   5.904   6.439
 2136SOL    HW112935   1.554   5.957   6.403
 2136SOL    HW212936   1.656   5.938   6.529
 2137SOL     OW12937   0.074   4.833   7.261
 2137SOL    HW112938   0.071   4.926   7.227
 2137SOL    HW212939   0.002   4.779   7.217
 2138SOL     OW12940   0.172   2.311   0.927
 2138SOL    HW112941   0.245   2.247   0.903
 2138SOL    HW212942   0.187   2.398   0.880
 2139SOL     OW12943   2.671   5.655   1.780
 2139SOL    HW112944   2.637   5.562   1.795
 2139SOL    HW212945   2.668   5.706   1.866
 2140SOL     OW12946   2.810   1.909   7.224
 2140SOL    HW112947   2.783   1.824   7.178
 2140SOL    HW212948   2.770   1.987   7.175
 2141SOL     OW12949   2.845   5.924   5.751
 2141SOL    HW112950   2.756   5.904   5.710
 2141SOL    HW212951   2.834   5.934   5.850
 2142SOL     OW12952   2.674   6.194   0.592
 2142SOL    HW112953   2.767   6.180   0.626
 2142SOL    HW212954   2.612   6.131   0.639
 2143SOL     OW12955   1.502   1.115   0.136
 2143SOL    HW112956   1.536   1.042   0.196
 2143SOL    HW212957   1.574   1.142   0.072
 2144SOL     OW12958   5.119   1.093   6.655
 2144SOL    HW112959   5.068   1.149   6.589
 2144SOL    HW212960   5.203   1.141   6.681
 2145SOL     OW12961   1.210   0.209   6.204
 2145SOL    HW112962   1.230   0.128   6.149
 2145SOL    HW212963   1.291   0.267   6.207
 2146SOL     OW12964   4.295   3.156   5.379
 2146SOL    HW112965   4.228   3.216   5.335
 2146SOL    HW212966   4.313   3.078   5.320
 2147SOL     OW12967   4.229   6.409   0.661
 2147SOL    HW112968   4.146   6.461   0.638
 2147SOL    HW212969   4.279   6.457   0.733
 2148SOL     OW12970   4.952   0.795   6.888
 2148SOL    HW112971   5.017   0.868   6.909
 2148SOL    HW212972   4.991   0.707   6.915
 2149SOL     OW12973   4.602   2.705   7.401
 2149SOL    HW112974   4.583   2.697   7.303
 2149SOL    HW212975   4.575   2.620   0.032
 2150SOL     OW12976   3.734   0.331   5.509
 2150SOL    HW112977   3.685   0.266   5.450
 2150SOL    HW212978   3.722   0.423   5.473
 2151SOL     OW12979   0.694   5.792   1.591
 2151SOL    HW112980   0.653   5.791   1.682
 2151SOL    HW212981   0.639   5.737   1.529
 2152SOL     OW12982   3.050   3.122   1.669
 2152SOL    HW112983   3.046   3.174   1.754
 2152SOL    HW212984   3.138   3.075   1.662
 2153SOL     OW12985   4.633   6.368   0.127
 2153SOL    HW112986   4.627   6.337   0.221
 2153SOL    HW212987   4.728   6.390   0.105
 2154SOL     OW12988   0.538   6.111   5.633
 2154SOL    HW112989   0.565   6.207   5.624
 2154SOL    HW212990   0.524   6.072   5.542
 2155SOL     OW12991   4.504   3.297   0.767
 2155SOL    HW112992   4.567   3.374   0.761
 2155SOL    HW212993   4.483   3.263   0.675
 2156SOL     OW12994   4.355   1.224   0.612
 2156SOL    HW112995   4.435   1.284   0.610
 2156SOL    HW212996   4.311   1.230   0.702
 2157SOL     OW12997   2.374   5.736   1.859
 2157SOL    HW112998   2.300   5.670   1.847
 2157SOL    HW212999   2.438   5.702   1.928
 2158SOL     OW13000   1.606   5.346   7.055
 2158SOL    HW113001   1.698   5.356   7.017
 2158SOL    HW213002   1.560   5.435   7.056
 2159SOL     OW13003   4.302   0.284   6.888
 2159SOL    HW113004   4.356   0.352   6.837
 2159SOL    HW213005   4.364   0.224   6.939
 2160SOL     OW13006   5.608   3.061   0.038
 2160SOL    HW113007   5.640   3.020   0.124
 2160SOL    HW213008   5.619   3.160   0.043
 2161SOL     OW13009   0.906   1.115   1.737
 2161SOL    HW113010   1.001   1.105   1.708
 2161SOL    HW213011   0.889   1.058   1.817
 2162SOL     OW13012   4.475   6.260   0.644
 2162SOL    HW113013   4.388   6.304   0.624
 2162SOL    HW213014   4.488   6.255   0.743
 2163SOL     OW13015   5.982   5.301   6.568
 2163SOL    HW113016   6.002   5.398   6.558
 2163SOL    HW213017   5.941   5.266   6.484
 2164SOL     OW13018   3.467   5.700   1.168
 2164SOL    HW113019   3.374   5.670   1.148
 2164SOL    HW213020   3.504   5.748   1.089
 2165SOL     OW13021   4.836   0.540   7.112
 2165SOL    HW113022   4.769   0.525   7.038
 2165SOL    HW213023   4.923   0.568   7.072
 2166SOL     OW13024   3.364   3.674   0.090
 2166SOL    HW113025   3.409   3.762   0.108
 2166SOL    HW213026   3.387   3.610   0.163
 2167SOL     OW13027   2.540   1.339   0.846
 2167SOL    HW113028   2.535   1.239   0.841
 2167SOL    HW213029   2.633   1.366   0.868
 2168SOL     OW13030   5.634   5.107   1.255
 2168SOL    HW113031   5.672   5.028   1.302
 2168SOL    HW213032   5.615   5.180   1.321
 2169SOL     OW13033   2.368   6.193   5.623
 2169SOL    HW113034   2.291   6.257   5.632
 2169SOL    HW213035   2.335   6.100   5.635
 2170SOL     OW13036   3.723   5.235   0.007
 2170SOL    HW113037   3.695   5.285   0.089
 2170SOL    HW213038   3.664   5.155   7.408
 2171SOL     OW13039   0.433   0.349   1.986
 2171SOL    HW113040   0.454   0.413   2.060
 2171SOL    HW213041   0.417   0.258   2.025
 2172SOL     OW13042   3.818   0.547   0.528
 2172SOL    HW113043   3.827   0.449   0.548
 2172SOL    HW213044   3.723   0.568   0.505
 2173SOL     OW13045   0.652   5.965   6.234
 2173SOL    HW113046   0.684   6.022   6.159
 2173SOL    HW213047   0.725   5.952   6.300
 2174SOL     OW13048   0.389   0.101   1.081
 2174SOL    HW113049   0.448   0.021   1.075
 2174SOL    HW213050   0.326   0.102   1.003
 2175SOL     OW13051   5.252   5.309   0.532
 2175SOL    HW113052   5.352   5.309   0.527
 2175SOL    HW213053   5.219   5.214   0.538
 2176SOL     OW13054   3.555   3.722   1.516
 2176SOL    HW113055   3.559   3.628   1.549
 2176SOL    HW213056   3.582   3.784   1.590
 2177SOL     OW13057   5.654   5.313   6.959
 2177SOL    HW113058   5.588   5.253   6.913
 2177SOL    HW213059   5.655   5.402   6.914
 2178SOL     OW13060   2.177   0.234   7.272
 2178SOL    HW113061   2.085   0.235   7.235
 2178SOL    HW213062   2.192   0.151   7.325
 2179SOL     OW13063   3.529   1.131   0.807
 2179SOL    HW113064   3.495   1.037   0.801
 2179SOL    HW213065   3.628   1.131   0.815
 2180SOL     OW13066   2.631   4.913   6.387
 2180SOL    HW113067   2.659   4.833   6.334
 2180SOL    HW213068   2.531   4.918   6.388
 2181SOL     OW13069   3.556   3.088   0.980
 2181SOL    HW113070   3.538   3.186   0.975
 2181SOL    HW213071   3.471   3.038   0.962
 2182SOL     OW13072   5.796   0.207   6.816
 2182SOL    HW113073   5.876   0.266   6.819
 2182SOL    HW213074   5.724   0.246   6.874
 2183SOL     OW13075   4.906   2.698   0.321
 2183SOL    HW113076   4.952   2.617   0.357
 2183SOL    HW213077   4.808   2.691   0.338
 2184SOL     OW13078   4.448   0.075   0.008
 2184SOL    HW113079   4.503   0.008   0.058
 2184SOL    HW213080   4.360   0.088   0.055
 2185SOL     OW13081   0.529   5.635   1.423
 2185SOL    HW113082   0.489   5.721   1.389
 2185SOL    HW213083   0.482   5.608   1.507
 2186SOL     OW13084   0.604   0.375   0.105
 2186SOL    HW113085   0.575   0.348   0.013
 2186SOL    HW213086   0.670   0.450   0.098
 2187SOL     OW13087   2.625   0.781   6.572
 2187SOL    HW113088   2.597   0.686   6.588
 2187SOL    HW213089   2.651   0.824   6.658
 2188SOL     OW13090   4.605   2.060   7.377
 2188SOL    HW113091   4.639   1.986   0.019
 2188SOL    HW213092   4.524   2.030   7.327
 2189SOL     OW13093   3.137   0.613   7.164
 2189SOL    HW113094   3.159   0.708   7.141
 2189SOL    HW213095   3.187   0.587   7.247
 2190SOL     OW13096   3.994   0.576   0.781
 2190SOL    HW113097   3.995   0.544   0.686
 2190SOL    HW213098   3.919   0.641   0.794
 2191SOL     OW13099   5.026   1.849   7.267
 2191SOL    HW113100   5.019   1.943   7.234
 2191SOL    HW213101   4.936   1.818   7.299
 2192SOL     OW13102   3.871   4.557   0.025
 2192SOL    HW113103   3.884   4.600   7.350
 2192SOL    HW213104   3.789   4.593   0.068
 2193SOL     OW13105   4.138   1.301   2.072
 2193SOL    HW113106   4.237   1.310   2.064
 2193SOL    HW213107   4.116   1.220   2.127
 2194SOL     OW13108   0.276   2.208   0.182
 2194SOL    HW113109   0.211   2.265   0.133
 2194SOL    HW213110   0.245   2.196   0.277
 2195SOL     OW13111   5.151   2.939   6.768
 2195SOL    HW113112   5.067   2.894   6.737
 2195SOL    HW213113   5.129   3.002   6.843
 2196SOL     OW13114   0.083   2.932   6.441
 2196SOL    HW113115   0.137   2.853   6.472
 2196SOL    HW213116   0.139   3.015   6.448
 2197SOL     OW13117   3.513   2.345   0.661
 2197SOL    HW113118   3.481   2.304   0.576
 2197SOL    HW213119   3.516   2.275   0.732
 2198SOL     OW13120   0.431   6.228   7.247
 2198SOL    HW113121   0.387   6.154   7.196
 2198SOL    HW213122   0.384   6.241   7.334
 2199SOL     OW13123   3.041   3.252   1.421
 2199SOL    HW113124   3.123   3.202   1.393
 2199SOL    HW213125   3.009   3.217   1.509
 2200SOL     OW13126   5.587   5.493   0.718
 2200SOL    HW113127   5.578   5.513   0.816
 2200SOL    HW213128   5.529   5.555   0.666
 2201SOL     OW13129   4.637   3.480   6.752
 2201SOL    HW113130   4.590   3.410   6.699
 2201SOL    HW213131   4.619   3.570   6.713
 2202SOL     OW13132   3.930   3.422   1.827
 2202SOL    HW113133   3.881   3.373   1.899
 2202SOL    HW213134   3.874   3.499   1.795
 2203SOL     OW13135   4.022   1.345   6.208
 2203SOL    HW113136   3.954   1.417   6.220
 2203SOL    HW213137   4.105   1.367   6.260
 2204SOL     OW13138   4.744   2.360   5.184
 2204SOL    HW113139   4.734   2.261   5.169
 2204SOL    HW213140   4.821   2.393   5.129
 2205SOL     OW13141   1.254   5.794   1.563
 2205SOL    HW113142   1.303   5.876   1.591
 2205SOL    HW213143   1.184   5.772   1.631
 2206SOL     OW13144   5.811   3.666   0.001
 2206SOL    HW113145   5.871   3.589   0.020
 2206SOL    HW213146   5.721   3.649   0.042
 2207SOL     OW13147   3.007   2.393   0.426
 2207SOL    HW113148   3.060   2.317   0.388
 2207SOL    HW213149   2.969   2.448   0.351
 2208SOL     OW13150   4.609   3.267   1.402
 2208SOL    HW113151   4.673   3.301   1.471
 2208SOL    HW213152   4.534   3.220   1.447
 2209SOL     OW13153   4.036   1.681   1.237
 2209SOL    HW113154   4.056   1.642   1.147
 2209SOL    HW213155   3.977   1.619   1.288
 2210SOL     OW13156   6.270   2.646   6.627
 2210SOL    HW113157   6.281   2.644   6.528
 2210SOL    HW213158   6.205   2.576   6.656
 2211SOL     OW13159   5.100   6.387   5.526
 2211SOL    HW113160   5.117   6.380   5.624
 2211SOL    HW213161   5.123   6.301   5.481
 2212SOL     OW13162   0.094   5.705   1.451
 2212SOL    HW113163   6.576   5.713   1.454
 2212SOL    HW213164   0.130   5.701   1.544
 2213SOL     OW13165   3.782   5.419   7.220
 2213SOL    HW113166   3.833   5.494   7.262
 2213SOL    HW213167   3.756   5.353   7.291
 2214SOL     OW13168   3.071   5.604   1.549
 2214SOL    HW113169   3.110   5.686   1.591
 2214SOL    HW213170   3.036   5.543   1.621
 2215SOL     OW13171   6.508   2.370   5.701
 2215SOL    HW113172   6.553   2.311   5.767
 2215SOL    HW213173   6.438   2.318   5.652
 2216SOL     OW13174   0.847   2.484   1.147
 2216SOL    HW113175   0.864   2.391   1.178
 2216SOL    HW213176   0.825   2.542   1.225
 2217SOL     OW13177   4.594   1.536   6.556
 2217SOL    HW113178   4.513   1.591   6.574
 2217SOL    HW213179   4.582   1.445   6.596
 2218SOL     OW13180   2.306   4.900   7.202
 2218SOL    HW113181   2.373   4.871   7.270
 2218SOL    HW213182   2.227   4.940   7.249
 2219SOL     OW13183   6.111   4.442   0.325
 2219SOL    HW113184   6.063   4.529   0.323
 2219SOL    HW213185   6.091   4.392   0.240
 2220SOL     OW13186   3.390   1.273   5.206
 2220SOL    HW113187   3.441   1.300   5.287
 2220SOL    HW213188   3.400   1.343   5.135
 2221SOL     OW13189   3.758   3.640   0.491
 2221SOL    HW113190   3.752   3.573   0.566
 2221SOL    HW213191   3.698   3.717   0.511
 2222SOL     OW13192   5.414   3.610   6.886
 2222SOL    HW113193   5.333   3.664   6.908
 2222SOL    HW213194   5.388   3.528   6.835
 2223SOL     OW13195   1.181   4.872   0.280
 2223SOL    HW113196   1.118   4.950   0.286
 2223SOL    HW213197   1.267   4.902   0.240
 2224SOL     OW13198   1.078   2.943   0.065
 2224SOL    HW113199   1.052   2.852   0.032
 2224SOL    HW213200   1.172   2.962   0.037
 2225SOL     OW13201   3.759   5.610   6.018
 2225SOL    HW113202   3.793   5.696   6.056
 2225SOL    HW213203   3.700   5.630   5.939
 2226SOL     OW13204   4.999   0.361   5.550
 2226SOL    HW113205   5.072   0.428   5.535
 2226SOL    HW213206   4.911   0.407   5.553
 2227SOL     OW13207   5.483   0.506   5.426
 2227SOL    HW113208   5.506   0.597   5.394
 2227SOL    HW213209   5.566   0.460   5.459
 2228SOL     OW13210   3.218   4.590   0.874
 2228SOL    HW113211   3.194   4.557   0.965
 2228SOL    HW213212   3.136   4.625   0.828
 2229SOL     OW13213   3.282   2.324   6.283
 2229SOL    HW113214   3.372   2.317   6.326
 2229SOL    HW213215   3.271   2.416   6.245
 2230SOL     OW13216   4.624   4.519   6.514
 2230SOL    HW113217   4.646   4.615   6.530
 2230SOL    HW213218   4.698   4.475   6.462
 2231SOL     OW13219   2.950   2.208   5.371
 2231SOL    HW113220   2.882   2.255   5.427
 2231SOL    HW213221   3.029   2.183   5.428
 2232SOL     OW13222   0.861   4.909   0.143
 2232SOL    HW113223   0.905   4.987   0.188
 2232SOL    HW213224   0.786   4.941   0.086
 2233SOL     OW13225   4.580   3.129   0.278
 2233SOL    HW113226   4.678   3.118   0.298
 2233SOL    HW213227   4.566   3.213   0.226
 2234SOL     OW13228   1.151   0.310   0.352
 2234SOL    HW113229   1.059   0.303   0.391
 2234SOL    HW213230   1.162   0.399   0.308
 2235SOL     OW13231   0.448   5.515   1.016
 2235SOL    HW113232   0.454   5.419   0.988
 2235SOL    HW213233   0.358   5.532   1.058
 2236SOL     OW13234   3.206   1.786   5.898
 2236SOL    HW113235   3.190   1.802   5.996
 2236SOL    HW213236   3.121   1.800   5.848
 2237SOL     OW13237   4.672   0.109   5.875
 2237SOL    HW113238   4.650   0.201   5.841
 2237SOL    HW213239   4.766   0.086   5.850
 2238SOL     OW13240   1.928   1.965   5.576
 2238SOL    HW113241   1.983   1.949   5.494
 2238SOL    HW213242   1.987   1.972   5.656
 2239SOL     OW13243   3.453   5.675   1.760
 2239SOL    HW113244   3.411   5.759   1.792
 2239SOL    HW213245   3.490   5.624   1.838
 2240SOL     OW13246   4.593   4.279   5.856
 2240SOL    HW113247   4.658   4.288   5.780
 2240SOL    HW213248   4.551   4.368   5.874
 2241SOL     OW13249   1.773   3.460   0.885
 2241SOL    HW113250   1.685   3.422   0.857
 2241SOL    HW213251   1.847   3.411   0.838
 2242SOL     OW13252   2.106   1.238   6.475
 2242SOL    HW113253   2.129   1.204   6.383
 2242SOL    HW213254   2.124   1.166   6.542
 2243SOL     OW13255   4.806   4.844   0.957
 2243SOL    HW113256   4.757   4.923   0.920
 2243SOL    HW213257   4.881   4.819   0.895
 2244SOL     OW13258   2.639   0.174   6.537
 2244SOL    HW113259   2.714   0.203   6.597
 2244SOL    HW213260   2.612   0.251   6.479
 2245SOL     OW13261   2.850   0.983   6.167
 2245SOL    HW113262   2.940   0.978   6.123
 2245SOL    HW213263   2.779   0.976   6.098
 2246SOL     OW13264   5.902   5.821   5.866
 2246SOL    HW113265   5.870   5.824   5.771
 2246SOL    HW213266   5.959   5.740   5.880
 2247SOL     OW13267   3.751   0.817   6.702
 2247SOL    HW113268   3.691   0.882   6.747
 2247SOL    HW213269   3.712   0.790   6.614
 2248SOL     OW13270   1.596   4.033   1.297
 2248SOL    HW113271   1.542   3.968   1.244
 2248SOL    HW213272   1.692   4.023   1.274
 2249SOL     OW13273   0.759   1.942   6.357
 2249SOL    HW113274   0.807   1.946   6.444
 2249SOL    HW213275   0.740   1.847   6.333
 2250SOL     OW13276   6.413   4.694   0.345
 2250SOL    HW113277   6.455   4.722   0.258
 2250SOL    HW213278   6.397   4.595   0.343
 2251SOL     OW13279   5.011   4.742   0.788
 2251SOL    HW113280   4.951   4.691   0.727
 2251SOL    HW213281   5.076   4.680   0.832
 2252SOL     OW13282   4.744   2.131   1.237
 2252SOL    HW113283   4.656   2.115   1.284
 2252SOL    HW213284   4.789   2.210   1.278
 2253SOL     OW13285   0.656   6.444   6.981
 2253SOL    HW113286   0.639   6.463   7.078
 2253SOL    HW213287   0.590   0.018   6.925
 2254SOL     OW13288   1.576   5.943   6.882
 2254SOL    HW113289   1.492   5.990   6.909
 2254SOL    HW213290   1.614   5.986   6.800
 2255SOL     OW13291   0.393   3.380   6.412
 2255SOL    HW113292   0.315   3.439   6.391
 2255SOL    HW213293   0.463   3.433   6.459
 2256SOL     OW13294   1.913   6.455   6.629
 2256SOL    HW113295   1.954   6.404   6.554
 2256SOL    HW213296   1.985   0.017   6.687
 2257SOL     OW13297   0.197   3.879   0.688
 2257SOL    HW113298   0.198   3.897   0.589
 2257SOL    HW213299   0.256   3.801   0.707
 2258SOL     OW13300   3.970   1.202   6.839
 2258SOL    HW113301   3.996   1.109   6.814
 2258SOL    HW213302   3.891   1.199   6.901
 2259SOL     OW13303   4.520   3.366   0.139
 2259SOL    HW113304   4.557   3.449   0.097
 2259SOL    HW213305   4.459   3.391   0.214
 2260SOL     OW13306   5.444   0.436   6.134
 2260SOL    HW113307   5.441   0.515   6.195
 2260SOL    HW213308   5.394   0.457   6.050
 2261SOL     OW13309   0.579   2.282   6.697
 2261SOL    HW113310   0.602   2.340   6.619
 2261SOL    HW213311   0.495   2.231   6.677
 2262SOL     OW13312   4.233   4.114   6.244
 2262SOL    HW113313   4.299   4.132   6.171
 2262SOL    HW213314   4.269   4.044   6.306
 2263SOL     OW13315   2.170   1.143   0.393
 2263SOL    HW113316   2.264   1.153   0.425
 2263SOL    HW213317   2.132   1.234   0.372
 2264SOL     OW13318   4.696   0.434   6.407
 2264SOL    HW113319   4.608   0.405   6.446
 2264SOL    HW213320   4.723   0.522   6.447
 2265SOL     OW13321   3.699   4.547   6.277
 2265SOL    HW113322   3.772   4.613   6.292
 2265SOL    HW213323   3.737   4.454   6.277
 2266SOL     OW13324   5.456   4.661   0.638
 2266SOL    HW113325   5.509   4.745   0.626
 2266SOL    HW213326   5.493   4.609   0.715
 2267SOL     OW13327   5.342   4.186   6.881
 2267SOL    HW113328   5.424   4.176   6.939
 2267SOL    HW213329   5.261   4.167   6.936
 2268SOL     OW13330   4.635   6.028   0.631
 2268SOL    HW113331   4.577   6.109   0.624
 2268SOL    HW213332   4.596   5.964   0.698
 2269SOL     OW13333   3.263   6.244   1.891
 2269SOL    HW113334   3.289   6.223   1.985
 2269SOL    HW213335   3.214   6.166   1.852
 2270SOL     OW13336   6.498   5.588   6.597
 2270SOL    HW113337   6.525   5.493   6.608
 2270SOL    HW213338   6.431   5.596   6.524
 2271SOL     OW13339   2.787   1.133   6.384
 2271SOL    HW113340   2.703   1.183   6.366
 2271SOL    HW213341   2.811   1.079   6.302
 2272SOL     OW13342   0.022   3.115   5.166
 2272SOL    HW113343   0.084   3.102   5.243
 2272SOL    HW213344   0.056   3.189   5.108
 2273SOL     OW13345   2.835   1.625   6.817
 2273SOL    HW113346   2.837   1.704   6.756
 2273SOL    HW213347   2.821   1.542   6.764
 2274SOL     OW13348   0.293   4.289   0.212
 2274SOL    HW113349   0.266   4.379   0.179
 2274SOL    HW213350   0.314   4.229   0.135
 2275SOL     OW13351   4.192   3.268   5.752
 2275SOL    HW113352   4.198   3.265   5.852
 2275SOL    HW213353   4.178   3.176   5.717
 2276SOL     OW13354   4.521   3.967   1.188
 2276SOL    HW113355   4.478   3.929   1.106
 2276SOL    HW213356   4.615   3.995   1.166
 2277SOL     OW13357   0.760   6.111   6.029
 2277SOL    HW113358   0.847   6.090   6.073
 2277SOL    HW213359   0.758   6.071   5.938
 2278SOL     OW13360   4.733   1.444   1.455
 2278SOL    HW113361   4.643   1.402   1.443
 2278SOL    HW213362   4.731   1.504   1.535
 2279SOL     OW13363   4.027   0.260   1.276
 2279SOL    HW113364   3.989   0.351   1.293
 2279SOL    HW213365   3.953   0.197   1.253
 2280SOL     OW13366   5.356   2.271   7.019
 2280SOL    HW113367   5.292   2.345   7.035
 2280SOL    HW213368   5.306   2.190   6.988
 2281SOL     OW13369   0.863   4.056   5.638
 2281SOL    HW113370   0.772   4.031   5.604
 2281SOL    HW213371   0.919   3.974   5.649
 2282SOL     OW13372   5.586   5.202   5.883
 2282SOL    HW113373   5.622   5.154   5.803
 2282SOL    HW213374   5.575   5.299   5.862
 2283SOL     OW13375   2.589   5.526   0.897
 2283SOL    HW113376   2.632   5.551   0.810
 2283SOL    HW213377   2.514   5.462   0.880
 2284SOL     OW13378   3.689   2.482   6.250
 2284SOL    HW113379   3.683   2.580   6.232
 2284SOL    HW213380   3.776   2.462   6.296
 2285SOL     OW13381   1.940   3.968   0.537
 2285SOL    HW113382   1.849   3.933   0.517
 2285SOL    HW213383   2.002   3.891   0.554
 2286SOL     OW13384   2.996   0.089   6.291
 2286SOL    HW113385   3.002   0.147   6.210
 2286SOL    HW213386   3.032   6.474   6.270
 2287SOL     OW13387   3.825   5.794   1.216
 2287SOL    HW113388   3.817   5.712   1.160
 2287SOL    HW213389   3.839   5.767   1.312
 2288SOL     OW13390   6.104   2.590   0.259
 2288SOL    HW113391   6.100   2.678   0.306
 2288SOL    HW213392   6.181   2.589   0.196
 2289SOL     OW13393   5.123   0.590   6.201
 2289SOL    HW113394   5.110   0.498   6.165
 2289SOL    HW213395   5.056   0.652   6.160
 2290SOL     OW13396   0.212   1.140   6.193
 2290SOL    HW113397   0.260   1.225   6.216
 2290SOL    HW213398   0.258   1.095   6.117
 2291SOL     OW13399   4.093   3.030   5.642
 2291SOL    HW113400   4.052   3.095   5.577
 2291SOL    HW213401   4.097   2.939   5.600
 2292SOL     OW13402   1.323   2.923   7.338
 2292SOL    HW113403   1.310   3.008   7.286
 2292SOL    HW213404   1.316   2.845   7.276
 2293SOL     OW13405   5.979   1.243   6.637
 2293SOL    HW113406   6.077   1.253   6.619
 2293SOL    HW213407   5.956   1.288   6.723
 2294SOL     OW13408   5.524   4.502   5.399
 2294SOL    HW113409   5.614   4.462   5.416
 2294SOL    HW213410   5.535   4.594   5.363
 2295SOL     OW13411   5.936   0.910   0.022
 2295SOL    HW113412   6.011   0.931   0.086
 2295SOL    HW213413   5.859   0.873   0.073
 2296SOL     OW13414   2.238   1.004   0.813
 2296SOL    HW113415   2.184   1.088   0.821
 2296SOL    HW213416   2.187   0.927   0.852
 2297SOL     OW13417   5.876   0.046   6.603
 2297SOL    HW113418   5.956   0.101   6.576
 2297SOL    HW213419   5.834   0.087   6.684
 2298SOL     OW13420   2.342   3.821   6.725
 2298SOL    HW113421   2.397   3.797   6.645
 2298SOL    HW213422   2.401   3.860   6.796
 2299SOL     OW13423   3.655   1.197   1.552
 2299SOL    HW113424   3.645   1.153   1.641
 2299SOL    HW213425   3.603   1.283   1.551
 2300SOL     OW13426   1.774   1.540   6.233
 2300SOL    HW113427   1.722   1.615   6.273
 2300SOL    HW213428   1.811   1.482   6.306
 2301SOL     OW13429   0.156   4.113   7.190
 2301SOL    HW113430   0.198   4.069   7.111
 2301SOL    HW213431   0.176   4.211   7.188
 2302SOL     OW13432   4.476   3.531   5.938
 2302SOL    HW113433   4.446   3.495   5.849
 2302SOL    HW213434   4.418   3.609   5.963
 2303SOL     OW13435   4.609   2.815   6.748
 2303SOL    HW113436   4.510   2.807   6.733
 2303SOL    HW213437   4.654   2.837   6.662
 2304SOL     OW13438   1.213   1.995   1.025
 2304SOL    HW113439   1.239   1.907   0.986
 2304SOL    HW213440   1.236   1.996   1.123
 2305SOL     OW13441   5.353   0.937   0.582
 2305SOL    HW113442   5.440   0.987   0.584
 2305SOL    HW213443   5.293   0.978   0.513
 2306SOL     OW13444   4.990   3.011   7.406
 2306SOL    HW113445   4.928   3.077   7.363
 2306SOL    HW213446   4.941   2.926   0.010
 2307SOL     OW13447   3.627   4.518   6.544
 2307SOL    HW113448   3.641   4.536   6.447
 2307SOL    HW213449   3.533   4.542   6.569
 2308SOL     OW13450   4.879   2.266   5.972
 2308SOL    HW113451   4.822   2.260   6.054
 2308SOL    HW213452   4.928   2.180   5.959
 2309SOL     OW13453   3.813   5.774   5.669
 2309SOL    HW113454   3.794   5.847   5.604
 2309SOL    HW213455   3.727   5.742   5.710
 2310SOL     OW13456   5.622   1.439   0.249
 2310SOL    HW113457   5.538   1.437   0.196
 2310SOL    HW213458   5.601   1.459   0.345
 2311SOL     OW13459   5.172   1.540   0.749
 2311SOL    HW113460   5.140   1.579   0.662
 2311SOL    HW213461   5.226   1.608   0.798
 2312SOL     OW13462   6.312   6.368   0.168
 2312SOL    HW113463   6.387   6.361   0.102
 2312SOL    HW213464   6.289   6.277   0.202
 2313SOL     OW13465   2.133   0.086   1.081
 2313SOL    HW113466   2.045   0.084   1.034
 2313SOL    HW213467   2.118   0.099   1.179
 2314SOL     OW13468   6.241   3.785   5.622
 2314SOL    HW113469   6.324   3.739   5.592
 2314SOL    HW213470   6.264   3.873   5.664
 2315SOL     OW13471   1.345   2.436   0.301
 2315SOL    HW113472   1.343   2.432   0.201
 2315SOL    HW213473   1.265   2.486   0.333
 2316SOL     OW13474   4.768   1.066   7.349
 2316SOL    HW113475   4.824   1.097   7.273
 2316SOL    HW213476   4.671   1.075   7.325
 2317SOL     OW13477   5.318   0.484   5.892
 2317SOL    HW113478   5.253   0.408   5.884
 2317SOL    HW213479   5.397   0.467   5.833
 2318SOL     OW13480   1.388   0.293   5.738
 2318SOL    HW113481   1.429   0.211   5.778
 2318SOL    HW213482   1.333   0.267   5.658
 2319SOL     OW13483   0.373   6.267   1.000
 2319SOL    HW113484   0.462   6.294   0.963
 2319SOL    HW213485   0.379   6.256   1.099
 2320SOL     OW13486   1.673   4.972   6.835
 2320SOL    HW113487   1.755   5.029   6.838
 2320SOL    HW213488   1.627   4.975   6.924
 2321SOL     OW13489   0.412   4.021   1.109
 2321SOL    HW113490   0.376   4.037   1.017
 2321SOL    HW213491   0.336   4.002   1.172
 2322SOL     OW13492   3.819   2.397   0.553
 2322SOL    HW113493   3.747   2.362   0.612
 2322SOL    HW213494   3.908   2.378   0.594
 2323SOL     OW13495   5.989   3.641   6.444
 2323SOL    HW113496   6.003   3.543   6.458
 2323SOL    HW213497   5.968   3.685   6.531
 2324SOL     OW13498   1.019   3.831   5.671
 2324SOL    HW113499   1.029   3.797   5.765
 2324SOL    HW213500   1.106   3.869   5.640
 2325SOL     OW13501   4.626   6.092   5.821
 2325SOL    HW113502   4.715   6.137   5.810
 2325SOL    HW213503   4.621   6.013   5.761
 2326SOL     OW13504   0.920   5.660   1.507
 2326SOL    HW113505   0.838   5.712   1.530
 2326SOL    HW213506   0.985   5.665   1.583
 2327SOL     OW13507   4.691   6.329   1.330
 2327SOL    HW113508   4.593   6.328   1.351
 2327SOL    HW213509   4.703   6.344   1.231
 2328SOL     OW13510   0.023   0.246   6.006
 2328SOL    HW113511   0.037   0.329   5.952
 2328SOL    HW213512   6.507   0.229   6.018
 2329SOL     OW13513   3.664   0.370   5.983
 2329SOL    HW113514   3.757   0.339   5.963
 2329SOL    HW213515   3.599   0.315   5.931
 2330SOL     OW13516   1.354   6.122   0.006
 2330SOL    HW113517   1.281   6.187   0.026
 2330SOL    HW213518   1.334   6.035   0.052
 2331SOL     OW13519   5.808   4.246   1.078
 2331SOL    HW113520   5.800   4.247   0.978
 2331SOL    HW213521   5.732   4.298   1.117
 2332SOL     OW13522   3.258   3.596   7.026
 2332SOL    HW113523   3.267   3.644   7.113
 2332SOL    HW213524   3.200   3.649   6.964
 2333SOL     OW13525   4.815   3.203   7.307
 2333SOL    HW113526   4.717   3.205   7.328
 2333SOL    HW213527   4.851   3.296   7.309
 2334SOL     OW13528   0.946   5.852   6.923
 2334SOL    HW113529   0.908   5.934   6.879
 2334SOL    HW213530   0.885   5.823   6.996
 2335SOL     OW13531   1.983   4.191   6.304
 2335SOL    HW113532   2.058   4.256   6.313
 2335SOL    HW213533   2.018   4.104   6.271
 2336SOL     OW13534   3.581   2.457   1.757
 2336SOL    HW113535   3.674   2.494   1.750
 2336SOL    HW213536   3.527   2.487   1.678
 2337SOL     OW13537   5.346   6.333   1.290
 2337SOL    HW113538   5.374   6.264   1.357
 2337SOL    HW213539   5.343   6.423   1.334
 2338SOL     OW13540   4.746   1.739   6.708
 2338SOL    HW113541   4.716   1.660   6.656
 2338SOL    HW213542   4.846   1.748   6.702
 2339SOL     OW13543   2.364   5.096   6.598
 2339SOL    HW113544   2.457   5.126   6.619
 2339SOL    HW213545   2.366   5.033   6.520
 2340SOL     OW13546   4.181   1.426   6.594
 2340SOL    HW113547   4.219   1.420   6.501
 2340SOL    HW213548   4.095   1.376   6.598
 2341SOL     OW13549   4.823   0.463   5.274
 2341SOL    HW113550   4.901   0.409   5.242
 2341SOL    HW213551   4.826   0.554   5.231
 2342SOL     OW13552   4.073   6.383   1.237
 2342SOL    HW113553   3.989   6.433   1.215
 2342SOL    HW213554   4.145   6.447   1.263
 2343SOL     OW13555   1.234   5.282   1.026
 2343SOL    HW113556   1.220   5.342   0.947
 2343SOL    HW213557   1.222   5.335   1.110
 2344SOL     OW13558   5.457   1.062   6.517
 2344SOL    HW113559   5.500   1.142   6.476
 2344SOL    HW213560   5.399   1.017   6.449
 2345SOL     OW13561   2.450   3.906   1.270
 2345SOL    HW113562   2.356   3.872   1.274
 2345SOL    HW213563   2.494   3.892   1.359
 2346SOL     OW13564   2.937   3.076   5.605
 2346SOL    HW113565   2.958   3.032   5.692
 2346SOL    HW213566   2.840   3.102   5.603
 2347SOL     OW13567   3.933   4.292   6.932
 2347SOL    HW113568   3.863   4.230   6.897
 2347SOL    HW213569   3.898   4.386   6.932
 2348SOL     OW13570   2.134   5.760   6.907
 2348SOL    HW113571   2.077   5.836   6.876
 2348SOL    HW213572   2.225   5.767   6.866
 2349SOL     OW13573   4.729   1.552   0.269
 2349SOL    HW113574   4.764   1.499   0.346
 2349SOL    HW213575   4.704   1.490   0.194
 2350SOL     OW13576   1.794   6.060   0.320
 2350SOL    HW113577   1.872   6.003   0.293
 2350SOL    HW213578   1.787   6.138   0.259
 2351SOL     OW13579   5.848   1.484   6.002
 2351SOL    HW113580   5.945   1.503   6.008
 2351SOL    HW213581   5.834   1.387   5.982
 2352SOL     OW13582   2.929   3.810   0.762
 2352SOL    HW113583   2.991   3.734   0.784
 2352SOL    HW213584   2.842   3.797   0.809
 2353SOL     OW13585   1.355   2.113   6.490
 2353SOL    HW113586   1.290   2.079   6.557
 2353SOL    HW213587   1.317   2.193   6.444
 2354SOL     OW13588   1.134   4.699   0.495
 2354SOL    HW113589   1.159   4.747   0.579
 2354SOL    HW213590   1.153   4.758   0.416
 2355SOL     OW13591   5.512   4.627   6.944
 2355SOL    HW113592   5.540   4.574   7.024
 2355SOL    HW213593   5.467   4.565   6.878
 2356SOL     OW13594   5.304   3.563   1.072
 2356SOL    HW113595   5.306   3.469   1.038
 2356SOL    HW213596   5.379   3.578   1.136
 2357SOL     OW13597   5.336   5.667   0.303
 2357SOL    HW113598   5.303   5.662   0.208
 2357SOL    HW213599   5.361   5.762   0.324
 2358SOL     OW13600   0.193   3.710   1.193
 2358SOL    HW113601   0.202   3.805   1.222
 2358SOL    HW213602   0.096   3.687   1.182
 2359SOL     OW13603   0.931   6.008   7.288
 2359SOL    HW113604   0.869   6.064   7.342
 2359SOL    HW213605   0.942   5.919   7.332
 2360SOL     OW13606   6.425   4.718   5.378
 2360SOL    HW113607   6.348   4.672   5.332
 2360SOL    HW213608   6.509   4.667   5.360
 2361SOL     OW13609   0.881   6.422   0.918
 2361SOL    HW113610   0.945   6.363   0.869
 2361SOL    HW213611   0.903   0.042   0.901
 2362SOL     OW13612   0.919   4.854   6.890
 2362SOL    HW113613   0.960   4.944   6.881
 2362SOL    HW213614   0.835   4.849   6.836
 2363SOL     OW13615   1.377   2.639   5.423
 2363SOL    HW113616   1.387   2.567   5.354
 2363SOL    HW213617   1.329   2.717   5.382
 2364SOL     OW13618   2.358   5.664   7.281
 2364SOL    HW113619   2.440   5.697   7.235
 2364SOL    HW213620   2.363   5.685   7.378
 2365SOL     OW13621   6.358   1.438   1.940
 2365SOL    HW113622   6.457   1.444   1.949
 2365SOL    HW213623   6.315   1.514   1.988
 2366SOL     OW13624   6.169   6.034   6.215
 2366SOL    HW113625   6.097   6.041   6.284
 2366SOL    HW213626   6.258   6.027   6.260
 2367SOL     OW13627   3.448   3.541   0.758
 2367SOL    HW113628   3.457   3.636   0.790
 2367SOL    HW213629   3.375   3.537   0.690
 2368SOL     OW13630   2.525   6.231   6.512
 2368SOL    HW113631   2.478   6.147   6.538
 2368SOL    HW213632   2.572   6.218   6.425
 2369SOL     OW13633   2.180   1.504   5.441
 2369SOL    HW113634   2.276   1.482   5.421
 2369SOL    HW213635   2.166   1.507   5.540
 2370SOL     OW13636   0.072   2.705   1.487
 2370SOL    HW113637   0.144   2.658   1.539
 2370SOL    HW213638   0.088   2.804   1.491
 2371SOL     OW13639   4.330   4.148   1.260
 2371SOL    HW113640   4.297   4.126   1.352
 2371SOL    HW213641   4.402   4.084   1.235
 2372SOL     OW13642   0.580   4.071   6.305
 2372SOL    HW113643   0.665   4.114   6.334
 2372SOL    HW213644   0.583   4.055   6.206
 2373SOL     OW13645   6.458   4.574   6.368
 2373SOL    HW113646   6.359   4.562   6.361
 2373SOL    HW213647   6.496   4.584   6.276
 2374SOL     OW13648   2.837   4.562   1.208
 2374SOL    HW113649   2.848   4.483   1.268
 2374SOL    HW213650   2.772   4.627   1.248
 2375SOL     OW13651   3.294   3.945   6.861
 2375SOL    HW113652   3.280   4.023   6.800
 2375SOL    HW213653   3.367   3.888   6.825
 2376SOL     OW13654   4.291   1.991   6.918
 2376SOL    HW113655   4.355   2.069   6.922
 2376SOL    HW213656   4.215   2.007   6.980
 2377SOL     OW13657   2.583   5.792   7.186
 2377SOL    HW113658   2.541   5.879   7.210
 2377SOL    HW213659   2.596   5.787   7.087
 2378SOL     OW13660   2.545   4.101   6.644
 2378SOL    HW113661   2.569   4.192   6.611
 2378SOL    HW213662   2.589   4.032   6.586
 2379SOL     OW13663   2.663   3.113   5.578
 2379SOL    HW113664   2.688   3.087   5.484
 2379SOL    HW213665   2.564   3.112   5.588
 2380SOL     OW13666   1.777   2.176   6.321
 2380SOL    HW113667   1.712   2.170   6.398
 2380SOL    HW213668   1.869   2.191   6.357
 2381SOL     OW13669   4.549   4.747   1.268
 2381SOL    HW113670   4.592   4.837   1.273
 2381SOL    HW213671   4.599   4.689   1.203
 2382SOL     OW13672   6.042   1.151   0.628
 2382SOL    HW113673   5.964   1.125   0.571
 2382SOL    HW213674   6.008   1.195   0.711
 2383SOL     OW13675   2.653   4.873   0.822
 2383SOL    HW113676   2.590   4.951   0.820
 2383SOL    HW213677   2.603   4.791   0.850
 2384SOL     OW13678   4.668   3.598   1.096
 2384SOL    HW113679   4.731   3.672   1.123
 2384SOL    HW213680   4.678   3.579   0.999
 2385SOL     OW13681   2.916   6.198   0.728
 2385SOL    HW113682   2.953   6.291   0.718
 2385SOL    HW213683   2.988   6.131   0.713
 2386SOL     OW13684   5.786   3.048   7.137
 2386SOL    HW113685   5.790   3.125   7.201
 2386SOL    HW213686   5.728   3.072   7.060
 2387SOL     OW13687   6.335   5.245   0.289
 2387SOL    HW113688   6.285   5.286   0.366
 2387SOL    HW213689   6.425   5.216   0.321
 2388SOL     OW13690   1.648   2.193   7.196
 2388SOL    HW113691   1.661   2.292   7.201
 2388SOL    HW213692   1.623   2.168   7.103
 2389SOL     OW13693   0.423   1.461   7.393
 2389SOL    HW113694   0.335   1.427   0.011
 2389SOL    HW213695   0.497   1.411   0.024
 2390SOL     OW13696   2.483   3.397   6.728
 2390SOL    HW113697   2.550   3.454   6.680
 2390SOL    HW213698   2.484   3.419   6.825
 2391SOL     OW13699   6.560   0.743   6.160
 2391SOL    HW113700   6.573   0.717   6.256
 2391SOL    HW213701   6.484   0.691   6.121
 2392SOL     OW13702   1.531   0.061   5.798
 2392SOL    HW113703   1.490   6.447   5.781
 2392SOL    HW213704   1.603   0.078   5.731
 2393SOL     OW13705   1.564   1.669   0.949
 2393SOL    HW113706   1.565   1.603   0.874
 2393SOL    HW213707   1.657   1.695   0.973
 2394SOL     OW13708   3.802   1.530   6.514
 2394SOL    HW113709   3.801   1.531   6.414
 2394SOL    HW213710   3.860   1.605   6.547
 2395SOL     OW13711   2.384   0.595   0.059
 2395SOL    HW113712   2.339   0.554   7.394
 2395SOL    HW213713   2.469   0.639   0.030
 2396SOL     OW13714   5.400   5.891   0.015
 2396SOL    HW113715   5.343   5.810   0.025
 2396SOL    HW213716   5.358   5.968   0.064
 2397SOL     OW13717   2.507   5.107   0.779
 2397SOL    HW113718   2.581   5.151   0.728
 2397SOL    HW213719   2.446   5.060   0.716
 2398SOL     OW13720   2.036   5.894   0.652
 2398SOL    HW113721   2.083   5.852   0.730
 2398SOL    HW213722   1.995   5.823   0.596
 2399SOL     OW13723   1.530   0.206   6.796
 2399SOL    HW113724   1.502   0.212   6.891
 2399SOL    HW213725   1.475   0.268   6.740
 2400SOL     OW13726   5.362   4.803   0.048
 2400SOL    HW113727   5.430   4.733   0.072
 2400SOL    HW213728   5.271   4.773   0.079
 2401SOL     OW13729   2.395   6.291   6.877
 2401SOL    HW113730   2.488   6.281   6.913
 2401SOL    HW213731   2.397   6.338   6.789
 2402SOL     OW13732   3.992   1.216   5.648
 2402SOL    HW113733   4.068   1.150   5.648
 2402SOL    HW213734   3.979   1.251   5.555
 2403SOL     OW13735   3.486   4.591   7.300
 2403SOL    HW113736   3.552   4.559   7.232
 2403SOL    HW213737   3.429   4.514   7.329
 2404SOL     OW13738   1.405   0.538   1.078
 2404SOL    HW113739   1.334   0.583   1.024
 2404SOL    HW213740   1.368   0.516   1.169
 2405SOL     OW13741   1.086   2.964   6.041
 2405SOL    HW113742   1.090   2.864   6.044
 2405SOL    HW213743   1.156   2.998   5.978
 2406SOL     OW13744   6.394   2.098   6.396
 2406SOL    HW113745   6.393   2.193   6.365
 2406SOL    HW213746   6.302   2.068   6.419
 2407SOL     OW13747   1.478   6.428   6.693
 2407SOL    HW113748   1.502   0.030   6.751
 2407SOL    HW213749   1.484   6.455   6.597
 2408SOL     OW13750   6.522   5.013   6.358
 2408SOL    HW113751   6.515   4.980   6.264
 2408SOL    HW213752   6.438   4.992   6.408
 2409SOL     OW13753   3.191   5.349   6.011
 2409SOL    HW113754   3.206   5.410   5.934
 2409SOL    HW213755   3.164   5.259   5.977
 2410SOL     OW13756   1.407   4.306   7.340
 2410SOL    HW113757   1.376   4.312   0.020
 2410SOL    HW213758   1.507   4.305   7.338
 2411SOL     OW13759   5.838   0.048   7.337
 2411SOL    HW113760   5.777   0.024   7.262
 2411SOL    HW213761   5.786   0.095   7.409
 2412SOL     OW13762   5.774   5.606   1.694
 2412SOL    HW113763   5.738   5.699   1.684
 2412SOL    HW213764   5.850   5.605   1.758
 2413SOL     OW13765   3.294   5.868   1.429
 2413SOL    HW113766   3.385   5.826   1.438
 2413SOL    HW213767   3.241   5.849   1.511
 2414SOL     OW13768   4.984   3.822   6.309
 2414SOL    HW113769   4.908   3.787   6.253
 2414SOL    HW213770   5.061   3.845   6.250
 2415SOL     OW13771   6.034   2.004   0.483
 2415SOL    HW113772   5.935   1.998   0.477
 2415SOL    HW213773   6.069   2.061   0.408
 2416SOL     OW13774   1.511   5.828   1.074
 2416SOL    HW113775   1.509   5.928   1.076
 2416SOL    HW213776   1.577   5.798   1.004
 2417SOL     OW13777   4.619   0.067   6.981
 2417SOL    HW113778   4.717   0.053   6.999
 2417SOL    HW213779   4.574   6.454   6.973
 2418SOL     OW13780   1.677   1.038   5.994
 2418SOL    HW113781   1.753   1.061   6.055
 2418SOL    HW213782   1.712   1.027   5.901
 2419SOL     OW13783   6.185   5.375   0.476
 2419SOL    HW113784   6.190   5.470   0.446
 2419SOL    HW213785   6.090   5.350   0.494
 2420SOL     OW13786   6.469   3.861   0.030
 2420SOL    HW113787   6.502   3.912   0.109
 2420SOL    HW213788   6.460   3.922   7.366
 2421SOL     OW13789   3.854   0.958   0.604
 2421SOL    HW113790   3.841   1.022   0.680
 2421SOL    HW213791   3.836   0.865   0.635
 2422SOL     OW13792   6.147   3.707   1.911
 2422SOL    HW113793   6.104   3.759   1.985
 2422SOL    HW213794   6.081   3.693   1.838
 2423SOL     OW13795   5.074   1.326   1.027
 2423SOL    HW113796   5.082   1.262   0.951
 2423SOL    HW213797   5.055   1.276   1.111
 2424SOL     OW13798   5.905   4.948   0.754
 2424SOL    HW113799   5.890   4.852   0.729
 2424SOL    HW213800   5.985   4.982   0.705
 2425SOL     OW13801   2.111   5.564   0.186
 2425SOL    HW113802   2.107   5.480   0.240
 2425SOL    HW213803   2.167   5.632   0.235
 2426SOL     OW13804   2.632   2.391   1.416
 2426SOL    HW113805   2.662   2.400   1.511
 2426SOL    HW213806   2.613   2.294   1.396
 2427SOL     OW13807   3.248   2.875   0.354
 2427SOL    HW113808   3.254   2.778   0.380
 2427SOL    HW213809   3.217   2.928   0.433
 2428SOL     OW13810   3.210   0.860   0.611
 2428SOL    HW113811   3.118   0.853   0.650
 2428SOL    HW213812   3.218   0.946   0.560
 2429SOL     OW13813   2.822   6.309   6.586
 2429SOL    HW113814   2.739   6.321   6.531
 2429SOL    HW213815   2.890   6.259   6.532
 2430SOL     OW13816   3.220   3.555   0.581
 2430SOL    HW113817   3.231   3.478   0.517
 2430SOL    HW213818   3.156   3.621   0.542
 2431SOL     OW13819   1.773   2.692   6.108
 2431SOL    HW113820   1.860   2.649   6.085
 2431SOL    HW213821   1.724   2.716   6.024
 2432SOL     OW13822   3.568   0.300   0.610
 2432SOL    HW113823   3.668   0.301   0.617
 2432SOL    HW213824   3.541   0.254   0.526
 2433SOL     OW13825   3.600   4.666   6.047
 2433SOL    HW113826   3.553   4.603   5.986
 2433SOL    HW213827   3.625   4.619   6.132
 2434SOL     OW13828   0.466   4.376   6.593
 2434SOL    HW113829   0.414   4.304   6.547
 2434SOL    HW213830   0.405   4.451   6.618
 2435SOL     OW13831   3.735   1.438   0.382
 2435SOL    HW113832   3.822   1.396   0.355
 2435SOL    HW213833   3.665   1.416   0.314
 2436SOL     OW13834   2.239   0.829   0.004
 2436SOL    HW113835   2.267   0.894   0.075
 2436SOL    HW213836   2.275   0.739   0.026
 2437SOL     OW13837   2.675   0.243   1.039
 2437SOL    HW113838   2.580   0.214   1.049
 2437SOL    HW213839   2.694   0.319   1.101
 2438SOL     OW13840   1.295   4.226   1.055
 2438SOL    HW113841   1.273   4.208   1.151
 2438SOL    HW213842   1.391   4.202   1.038
 2439SOL     OW13843   3.887   5.555   7.003
 2439SOL    HW113844   3.943   5.621   7.053
 2439SOL    HW213845   3.831   5.503   7.068
 2440SOL     OW13846   6.530   1.046   1.464
 2440SOL    HW113847   6.555   0.986   1.540
 2440SOL    HW213848   6.492   1.131   1.500
 2441SOL     OW13849   4.204   3.130   1.220
 2441SOL    HW113850   4.299   3.160   1.210
 2441SOL    HW213851   4.197   3.071   1.301
 2442SOL     OW13852   2.356   1.678   0.969
 2442SOL    HW113853   2.411   1.704   1.048
 2442SOL    HW213854   2.374   1.741   0.893
 2443SOL     OW13855   3.913   3.043   0.382
 2443SOL    HW113856   4.005   3.071   0.357
 2443SOL    HW213857   3.853   3.124   0.383
 2444SOL     OW13858   0.554   3.563   6.974
 2444SOL    HW113859   0.474   3.503   6.959
 2444SOL    HW213860   0.614   3.521   7.042
 2445SOL     OW13861   0.470   5.566   1.928
 2445SOL    HW113862   0.372   5.573   1.947
 2445SOL    HW213863   0.509   5.492   1.982
 2446SOL     OW13864   6.147   3.861   0.355
 2446SOL    HW113865   6.096   3.937   0.314
 2446SOL    HW213866   6.180   3.801   0.283
 2447SOL     OW13867   1.706   3.710   1.364
 2447SOL    HW113868   1.628   3.720   1.425
 2447SOL    HW213869   1.677   3.666   1.279
 2448SOL     OW13870   2.058   5.367   1.179
 2448SOL    HW113871   1.970   5.369   1.227
 2448SOL    HW213872   2.096   5.274   1.184
 2449SOL     OW13873   1.674   0.949   0.572
 2449SOL    HW113874   1.648   0.876   0.634
 2449SOL    HW213875   1.758   0.993   0.605
 2450SOL     OW13876   1.504   3.892   0.086
 2450SOL    HW113877   1.456   3.961   0.139
 2450SOL    HW213878   1.439   3.835   0.037
 2451SOL     OW13879   0.666   1.579   5.911
 2451SOL    HW113880   0.757   1.568   5.872
 2451SOL    HW213881   0.635   1.673   5.897
 2452SOL     OW13882   2.367   5.375   6.760
 2452SOL    HW113883   2.443   5.329   6.715
 2452SOL    HW213884   2.328   5.316   6.830
 2453SOL     OW13885   5.799   3.306   7.263
 2453SOL    HW113886   5.783   3.345   7.172
 2453SOL    HW213887   5.718   3.320   7.320
 2454SOL     OW13888   0.718   5.241   0.018
 2454SOL    HW113889   0.680   5.150   0.002
 2454SOL    HW213890   0.804   5.250   7.382
 2455SOL     OW13891   2.372   5.978   1.744
 2455SOL    HW113892   2.385   5.890   1.791
 2455SOL    HW213893   2.300   6.030   1.789
 2456SOL     OW13894   5.898   6.392   0.851
 2456SOL    HW113895   5.985   6.425   0.886
 2456SOL    HW213896   5.875   6.439   0.767
 2457SOL     OW13897   3.530   2.307   6.403
 2457SOL    HW113898   3.590   2.237   6.441
 2457SOL    HW213899   3.585   2.378   6.359
 2458SOL     OW13900   1.217   6.110   1.083
 2458SOL    HW113901   1.181   6.026   1.042
 2458SOL    HW213902   1.154   6.142   1.153
 2459SOL     OW13903   3.832   4.326   0.382
 2459SOL    HW113904   3.893   4.386   0.433
 2459SOL    HW213905   3.885   4.272   0.316
 2460SOL     OW13906   0.259   5.121   6.079
 2460SOL    HW113907   0.324   5.191   6.050
 2460SOL    HW213908   0.304   5.056   6.139
 2461SOL     OW13909   6.200   1.115   7.133
 2461SOL    HW113910   6.272   1.086   7.070
 2461SOL    HW213911   6.145   1.036   7.160
 2462SOL     OW13912   4.531   6.283   6.959
 2462SOL    HW113913   4.598   6.256   7.028
 2462SOL    HW213914   4.545   6.229   6.876
 2463SOL     OW13915   3.143   5.227   0.685
 2463SOL    HW113916   3.198   5.215   0.768
 2463SOL    HW213917   3.122   5.137   0.646
 2464SOL     OW13918   1.110   5.890   0.957
 2464SOL    HW113919   1.097   5.794   0.985
 2464SOL    HW213920   1.021   5.931   0.937
 2465SOL     OW13921   5.451   6.146   1.463
 2465SOL    HW113922   5.480   6.091   1.385
 2465SOL    HW213923   5.509   6.126   1.542
 2466SOL     OW13924   4.391   4.974   2.091
 2466SOL    HW113925   4.434   5.064   2.081
 2466SOL    HW213926   4.353   4.966   2.183
 2467SOL     OW13927   2.588   4.166   7.344
 2467SOL    HW113928   2.498   4.172   7.301
 2467SOL    HW213929   2.609   4.252   7.391
 2468SOL     OW13930   2.014   1.292   1.281
 2468SOL    HW113931   2.025   1.221   1.211
 2468SOL    HW213932   1.972   1.252   1.363
 2469SOL     OW13933   1.916   3.084   6.510
 2469SOL    HW113934   1.831   3.132   6.532
 2469SOL    HW213935   1.950   3.037   6.591
 2470SOL     OW13936   4.833   1.109   6.261
 2470SOL    HW113937   4.773   1.036   6.228
 2470SOL    HW213938   4.783   1.195   6.264
 2471SOL     OW13939   3.320   4.687   5.733
 2471SOL    HW113940   3.269   4.772   5.745
 2471SOL    HW213941   3.395   4.702   5.669
 2472SOL     OW13942   1.456   2.892   0.373
 2472SOL    HW113943   1.389   2.830   0.415
 2472SOL    HW213944   1.476   2.861   0.280
 2473SOL     OW13945   5.315   0.290   5.631
 2473SOL    HW113946   5.270   0.366   5.585
 2473SOL    HW213947   5.401   0.321   5.672
 2474SOL     OW13948   4.241   3.371   0.843
 2474SOL    HW113949   4.340   3.362   0.849
 2474SOL    HW213950   4.206   3.312   0.770
 2475SOL     OW13951   2.824   1.398   6.653
 2475SOL    HW113952   2.748   1.352   6.700
 2475SOL    HW213953   2.787   1.462   6.585
 2476SOL     OW13954   4.950   0.957   1.098
 2476SOL    HW113955   4.999   0.937   1.183
 2476SOL    HW213956   5.016   0.982   1.027
 2477SOL     OW13957   3.924   2.431   6.363
 2477SOL    HW113958   3.952   2.368   6.435
 2477SOL    HW213959   3.969   2.520   6.376
 2478SOL     OW13960   0.426   0.120   5.668
 2478SOL    HW113961   0.355   0.059   5.703
 2478SOL    HW213962   0.387   0.211   5.652
 2479SOL     OW13963   5.651   4.832   1.805
 2479SOL    HW113964   5.559   4.804   1.778
 2479SOL    HW213965   5.652   4.854   1.903
 2480SOL     OW13966   3.152   2.835   7.007
 2480SOL    HW113967   3.245   2.799   7.016
 2480SOL    HW213968   3.150   2.904   6.934
 2481SOL     OW13969   4.055   0.921   0.405
 2481SOL    HW113970   4.147   0.945   0.436
 2481SOL    HW213971   3.989   0.944   0.476
 2482SOL     OW13972   6.193   3.544   6.940
 2482SOL    HW113973   6.134   3.464   6.938
 2482SOL    HW213974   6.259   3.535   7.014
 2483SOL     OW13975   2.094   2.800   6.961
 2483SOL    HW113976   2.027   2.841   7.023
 2483SOL    HW213977   2.057   2.716   6.922
 2484SOL     OW13978   0.218   1.298   0.091
 2484SOL    HW113979   0.282   1.288   0.167
 2484SOL    HW213980   0.124   1.305   0.126
 2485SOL     OW13981   3.646   0.671   1.444
 2485SOL    HW113982   3.606   0.734   1.511
 2485SOL    HW213983   3.697   0.600   1.492
 2486SOL     OW13984   1.080   5.301   6.584
 2486SOL    HW113985   1.161   5.256   6.619
 2486SOL    HW213986   1.027   5.339   6.659
 2487SOL     OW13987   6.158   4.522   7.412
 2487SOL    HW113988   6.143   4.514   7.313
 2487SOL    HW213989   6.196   4.613   0.018
 2488SOL     OW13990   3.118   2.786   1.007
 2488SOL    HW113991   3.034   2.839   1.020
 2488SOL    HW213992   3.148   2.748   1.094
 2489SOL     OW13993   0.889   4.269   0.946
 2489SOL    HW113994   0.798   4.305   0.963
 2489SOL    HW213995   0.957   4.323   0.997
 2490SOL     OW13996   3.151   2.123   5.542
 2490SOL    HW113997   3.241   2.159   5.567
 2490SOL    HW213998   3.161   2.031   5.505
 2491SOL     OW13999   4.281   3.539   7.228
 2491SOL    HW114000   4.332   3.618   7.194
 2491SOL    HW214001   4.321   3.455   7.192
 2492SOL     OW14002   6.454   0.382   0.586
 2492SOL    HW114003   6.501   0.295   0.603
 2492SOL    HW214004   6.521   0.456   0.589
 2493SOL     OW14005   3.409   6.244   6.829
 2493SOL    HW114006   3.462   6.162   6.851
 2493SOL    HW214007   3.471   6.319   6.806
 2494SOL     OW14008   0.023   0.627   0.563
 2494SOL    HW114009   0.025   0.594   0.469
 2494SOL    HW214010   0.111   0.670   0.584
 2495SOL     OW14011   3.476   3.804   0.832
 2495SOL    HW114012   3.552   3.808   0.897
 2495SOL    HW214013   3.406   3.869   0.860
 2496SOL     OW14014   3.043   5.455   6.561
 2496SOL    HW114015   3.065   5.376   6.618
 2496SOL    HW214016   3.116   5.523   6.569
 2497SOL     OW14017   4.751   4.476   2.230
 2497SOL    HW114018   4.748   4.451   2.327
 2497SOL    HW214019   4.846   4.492   2.203
 2498SOL     OW14020   2.186   3.571   5.949
 2498SOL    HW114021   2.232   3.544   6.033
 2498SOL    HW214022   2.117   3.502   5.925
 2499SOL     OW14023   1.815   1.735   1.016
 2499SOL    HW114024   1.880   1.672   1.057
 2499SOL    HW214025   1.848   1.829   1.026
 2500SOL     OW14026   3.354   2.041   1.055
 2500SOL    HW114027   3.380   2.102   1.130
 2500SOL    HW214028   3.255   2.042   1.044
 2501SOL     OW14029   4.985   4.646   6.262
 2501SOL    HW114030   4.901   4.698   6.245
 2501SOL    HW214031   5.036   4.689   6.337
 2502SOL     OW14032   2.007   2.003   6.199
 2502SOL    HW114033   2.106   2.010   6.185
 2502SOL    HW214034   1.959   2.027   6.114
 2503SOL     OW14035   2.668   4.693   6.235
 2503SOL    HW114036   2.670   4.722   6.139
 2503SOL    HW214037   2.582   4.647   6.254
 2504SOL     OW14038   0.472   3.390   7.361
 2504SOL    HW114039   0.376   3.363   7.350
 2504SOL    HW214040   0.508   3.352   0.032
 2505SOL     OW14041   3.408   4.763   6.355
 2505SOL    HW114042   3.442   4.792   6.445
 2505SOL    HW214043   3.369   4.842   6.307
 2506SOL     OW14044   5.754   5.482   7.325
 2506SOL    HW114045   5.753   5.489   0.011
 2506SOL    HW214046   5.820   5.546   7.288
 2507SOL     OW14047   6.347   3.588   6.552
 2507SOL    HW114048   6.442   3.617   6.569
 2507SOL    HW214049   6.286   3.638   6.613
 2508SOL     OW14050   6.120   0.285   0.024
 2508SOL    HW114051   6.096   0.241   7.352
 2508SOL    HW214052   6.037   0.319   0.069
 2509SOL     OW14053   2.142   1.414   0.328
 2509SOL    HW114054   2.072   1.462   0.274
 2509SOL    HW214055   2.228   1.413   0.277
 2510SOL     OW14056   4.397   1.954   7.228
 2510SOL    HW114057   4.465   1.889   7.196
 2510SOL    HW214058   4.313   1.905   7.254
 2511SOL     OW14059   4.791   4.599   1.828
 2511SOL    HW114060   4.716   4.577   1.892
 2511SOL    HW214061   4.778   4.548   1.743
 2512SOL     OW14062   6.283   3.941   6.546
 2512SOL    HW114063   6.255   3.871   6.612
 2512SOL    HW214064   6.206   3.962   6.486
 2513SOL     OW14065   3.054   0.701   1.376
 2513SOL    HW114066   3.137   0.652   1.352
 2513SOL    HW214067   3.048   0.711   1.475
 2514SOL     OW14068   2.122   0.764   0.929
 2514SOL    HW114069   2.161   0.804   1.012
 2514SOL    HW214070   2.172   0.680   0.906
 2515SOL     OW14071   0.299   5.620   0.238
 2515SOL    HW114072   0.231   5.651   0.304
 2515SOL    HW214073   0.387   5.661   0.259
 2516SOL     OW14074   5.991   2.981   2.051
 2516SOL    HW114075   6.070   2.940   2.098
 2516SOL    HW214076   5.911   2.977   2.110
 2517SOL     OW14077   5.159   1.541   6.176
 2517SOL    HW114078   5.116   1.480   6.109
 2517SOL    HW214079   5.147   1.503   6.268
 2518SOL     OW14080   3.693   2.250   7.043
 2518SOL    HW114081   3.733   2.271   7.132
 2518SOL    HW214082   3.686   2.334   6.989
 2519SOL     OW14083   0.458   0.950   0.188
 2519SOL    HW114084   0.442   0.988   0.280
 2519SOL    HW214085   0.556   0.943   0.172
 2520SOL     OW14086   2.426   2.320   7.189
 2520SOL    HW114087   2.329   2.344   7.203
 2520SOL    HW214088   2.478   2.402   7.167
 2521SOL     OW14089   0.480   4.267   0.785
 2521SOL    HW114090   0.412   4.201   0.816
 2521SOL    HW214091   0.568   4.221   0.775
 2522SOL     OW14092   4.885   3.727   7.314
 2522SOL    HW114093   4.857   3.795   7.381
 2522SOL    HW214094   4.981   3.742   7.289
 2523SOL     OW14095   0.288   4.000   6.965
 2523SOL    HW114096   0.312   3.911   7.003
 2523SOL    HW214097   0.321   4.007   6.871
 2524SOL     OW14098   3.143   3.208   5.485
 2524SOL    HW114099   3.117   3.244   5.396
 2524SOL    HW214100   3.068   3.153   5.522
 2525SOL     OW14101   0.372   0.208   6.533
 2525SOL    HW114102   0.302   0.264   6.577
 2525SOL    HW214103   0.364   0.113   6.566
 2526SOL     OW14104   1.590   6.257   0.905
 2526SOL    HW114105   1.529   6.334   0.883
 2526SOL    HW214106   1.681   6.276   0.869
 2527SOL     OW14107   2.751   0.615   1.647
 2527SOL    HW114108   2.678   0.548   1.663
 2527SOL    HW214109   2.827   0.597   1.709
 2528SOL     OW14110   5.854   0.493   1.405
 2528SOL    HW114111   5.799   0.425   1.455
 2528SOL    HW214112   5.910   0.544   1.470
 2529SOL     OW14113   5.123   2.014   6.218
 2529SOL    HW114114   5.193   1.981   6.282
 2529SOL    HW214115   5.089   1.937   6.164
 2530SOL     OW14116   0.710   1.563   0.896
 2530SOL    HW114117   0.705   1.493   0.967
 2530SOL    HW214118   0.788   1.623   0.913
 2531SOL     OW14119   4.164   1.538   0.697
 2531SOL    HW114120   4.255   1.561   0.661
 2531SOL    HW214121   4.159   1.564   0.793
 2532SOL     OW14122   1.581   4.488   1.234
 2532SOL    HW114123   1.495   4.453   1.271
 2532SOL    HW214124   1.616   4.425   1.165
 2533SOL     OW14125   1.599   1.394   5.247
 2533SOL    HW114126   1.511   1.402   5.201
 2533SOL    HW214127   1.650   1.479   5.238
 2534SOL     OW14128   5.763   0.414   6.603
 2534SOL    HW114129   5.697   0.343   6.630
 2534SOL    HW214130   5.847   0.404   6.657
 2535SOL     OW14131   0.688   0.746   7.204
 2535SOL    HW114132   0.611   0.778   7.259
 2535SOL    HW214133   0.763   0.717   7.264
 2536SOL     OW14134   4.835   4.512   5.867
 2536SOL    HW114135   4.917   4.489   5.920
 2536SOL    HW214136   4.823   4.444   5.795
 2537SOL     OW14137   4.708   4.451   6.107
 2537SOL    HW114138   4.746   4.482   6.020
 2537SOL    HW214139   4.747   4.362   6.132
 2538SOL     OW14140   6.265   1.561   6.563
 2538SOL    HW114141   6.183   1.600   6.521
 2538SOL    HW214142   6.337   1.629   6.566
 2539SOL     OW14143   0.942   2.363   6.500
 2539SOL    HW114144   0.965   2.275   6.459
 2539SOL    HW214145   1.026   2.415   6.517
 2540SOL     OW14146   4.503   3.827   5.347
 2540SOL    HW114147   4.528   3.796   5.255
 2540SOL    HW214148   4.459   3.751   5.397
 2541SOL     OW14149   5.417   0.252   1.933
 2541SOL    HW114150   5.458   0.313   2.001
 2541SOL    HW214151   5.343   0.299   1.886
 2542SOL     OW14152   1.293   2.559   5.838
 2542SOL    HW114153   1.357   2.626   5.801
 2542SOL    HW214154   1.242   2.517   5.763
 2543SOL     OW14155   4.949   6.082   6.882
 2543SOL    HW114156   5.019   6.153   6.873
 2543SOL    HW214157   4.932   6.064   6.978
 2544SOL     OW14158   4.559   4.660   0.357
 2544SOL    HW114159   4.575   4.758   0.345
 2544SOL    HW214160   4.553   4.638   0.454
 2545SOL     OW14161   2.985   0.828   6.882
 2545SOL    HW114162   3.021   0.900   6.824
 2545SOL    HW214163   3.003   0.739   6.841
 2546SOL     OW14164   6.181   4.568   6.320
 2546SOL    HW114165   6.177   4.625   6.238
 2546SOL    HW214166   6.106   4.502   6.319
 2547SOL     OW14167   5.665   4.326   6.008
 2547SOL    HW114168   5.707   4.277   6.084
 2547SOL    HW214169   5.737   4.366   5.951
 2548SOL     OW14170   5.479   5.158   6.818
 2548SOL    HW114171   5.387   5.182   6.849
 2548SOL    HW214172   5.493   5.059   6.828
 2549SOL     OW14173   1.349   1.872   0.569
 2549SOL    HW114174   1.439   1.859   0.609
 2549SOL    HW214175   1.333   1.803   0.498
 2550SOL     OW14176   6.275   6.461   5.887
 2550SOL    HW114177   6.310   0.059   5.945
 2550SOL    HW214178   6.272   0.017   5.792
 2551SOL     OW14179   5.128   1.675   0.500
 2551SOL    HW114180   5.098   1.769   0.484
 2551SOL    HW214181   5.101   1.617   0.423
 2552SOL     OW14182   5.447   2.528   0.426
 2552SOL    HW114183   5.440   2.457   0.356
 2552SOL    HW214184   5.385   2.603   0.404
 2553SOL     OW14185   0.272   0.691   7.237
 2553SOL    HW114186   0.186   0.723   7.276
 2553SOL    HW214187   0.348   0.745   7.274
 2554SOL     OW14188   0.043   2.218   5.899
 2554SOL    HW114189   0.002   2.140   5.944
 2554SOL    HW214190   0.034   2.299   5.957
 2555SOL     OW14191   3.989   0.367   0.965
 2555SOL    HW114192   4.017   0.401   1.054
 2555SOL    HW214193   3.994   0.440   0.897
 2556SOL     OW14194   3.287   3.118   1.431
 2556SOL    HW114195   3.283   3.073   1.520
 2556SOL    HW214196   3.365   3.180   1.429
 2557SOL     OW14197   3.448   2.253   1.867
 2557SOL    HW114198   3.417   2.187   1.797
 2557SOL    HW214199   3.498   2.327   1.823
 2558SOL     OW14200   2.296   2.298   0.321
 2558SOL    HW114201   2.360   2.232   0.281
 2558SOL    HW214202   2.203   2.265   0.311
 2559SOL     OW14203   0.704   4.784   5.840
 2559SOL    HW114204   0.762   4.865   5.834
 2559SOL    HW214205   0.712   4.732   5.755
 2560SOL     OW14206   3.878   4.986   6.690
 2560SOL    HW114207   3.879   5.023   6.597
 2560SOL    HW214208   3.969   4.955   6.715
 2561SOL     OW14209   3.384   3.955   1.822
 2561SOL    HW114210   3.301   3.911   1.858
 2561SOL    HW214211   3.370   4.055   1.821
 2562SOL     OW14212   0.513   0.603   0.264
 2562SOL    HW114213   0.598   0.632   0.220
 2562SOL    HW214214   0.491   0.510   0.235
 2563SOL     OW14215   3.535   0.512   1.247
 2563SOL    HW114216   3.579   0.559   1.323
 2563SOL    HW214217   3.543   0.413   1.259
 2564SOL     OW14218   4.909   2.479   1.181
 2564SOL    HW114219   4.864   2.435   1.259
 2564SOL    HW214220   4.846   2.545   1.140
 2565SOL     OW14221   4.063   3.346   6.850
 2565SOL    HW114222   4.124   3.277   6.890
 2565SOL    HW214223   3.999   3.378   6.920
 2566SOL     OW14224   2.135   3.236   6.439
 2566SOL    HW114225   2.060   3.174   6.462
 2566SOL    HW214226   2.132   3.258   6.342
 2567SOL     OW14227   3.421   5.525   7.401
 2567SOL    HW114228   3.403   5.431   7.373
 2567SOL    HW214229   3.434   5.581   7.319
 2568SOL     OW14230   2.049   2.616   6.372
 2568SOL    HW114231   2.039   2.716   6.367
 2568SOL    HW214232   2.006   2.583   6.455
 2569SOL     OW14233   2.295   4.296   6.975
 2569SOL    HW114234   2.345   4.382   6.973
 2569SOL    HW214235   2.295   4.255   6.884
 2570SOL     OW14236   1.295   1.652   0.409
 2570SOL    HW114237   1.228   1.614   0.472
 2570SOL    HW214238   1.262   1.641   0.315
 2571SOL     OW14239   5.209   2.880   7.296
 2571SOL    HW114240   5.283   2.944   7.273
 2571SOL    HW214241   5.130   2.931   7.330
 2572SOL     OW14242   4.411   6.346   1.332
 2572SOL    HW114243   4.358   6.425   1.303
 2572SOL    HW214244   4.394   6.270   1.270
 2573SOL     OW14245   1.561   2.157   6.932
 2573SOL    HW114246   1.537   2.248   6.899
 2573SOL    HW214247   1.487   2.093   6.909
 2574SOL     OW14248   2.874   1.335   0.801
 2574SOL    HW114249   2.852   1.341   0.703
 2574SOL    HW214250   2.844   1.247   0.836
 2575SOL     OW14251   2.481   5.104   7.152
 2575SOL    HW114252   2.533   5.125   7.235
 2575SOL    HW214253   2.421   5.026   7.170
 2576SOL     OW14254   5.962   0.436   0.855
 2576SOL    HW114255   5.995   0.465   0.765
 2576SOL    HW214256   5.947   0.516   0.912
 2577SOL     OW14257   5.044   1.738   5.810
 2577SOL    HW114258   5.029   1.643   5.781
 2577SOL    HW214259   5.083   1.790   5.735
 2578SOL     OW14260   2.298   3.738   0.796
 2578SOL    HW114261   2.291   3.680   0.877
 2578SOL    HW214262   2.379   3.711   0.743
 2579SOL     OW14263   6.551   4.800   0.111
 2579SOL    HW114264   0.014   4.799   0.021
 2579SOL    HW214265   0.003   4.878   0.164
 2580SOL     OW14266   2.904   3.676   1.135
 2580SOL    HW114267   2.882   3.586   1.172
 2580SOL    HW214268   2.997   3.674   1.096
 2581SOL     OW14269   6.112   4.112   6.963
 2581SOL    HW114270   6.065   4.025   6.973
 2581SOL    HW214271   6.155   4.136   7.050
 2582SOL     OW14272   1.252   3.745   6.165
 2582SOL    HW114273   1.167   3.779   6.205
 2582SOL    HW214274   1.299   3.687   6.231
 2583SOL     OW14275   2.427   2.795   6.381
 2583SOL    HW114276   2.372   2.850   6.442
 2583SOL    HW214277   2.419   2.830   6.287
 2584SOL     OW14278   2.940   2.214   0.034
 2584SOL    HW114279   2.930   2.117   0.053
 2584SOL    HW214280   3.035   2.233   0.009
 2585SOL     OW14281   5.691   0.517   0.771
 2585SOL    HW114282   5.611   0.482   0.820
 2585SOL    HW214283   5.771   0.462   0.794
 2586SOL     OW14284   1.959   4.548   0.722
 2586SOL    HW114285   1.951   4.488   0.801
 2586SOL    HW214286   1.921   4.503   0.641
 2587SOL     OW14287   2.807   4.981   6.844
 2587SOL    HW114288   2.763   4.914   6.784
 2587SOL    HW214289   2.737   5.043   6.881
 2588SOL     OW14290   4.728   0.797   1.047
 2588SOL    HW114291   4.805   0.852   1.078
 2588SOL    HW214292   4.730   0.790   0.948
 2589SOL     OW14293   2.116   6.178   0.255
 2589SOL    HW114294   2.079   6.085   0.257
 2589SOL    HW214295   2.079   6.230   0.333
 2590SOL     OW14296   4.051   3.754   5.181
 2590SOL    HW114297   3.987   3.814   5.229
 2590SOL    HW214298   4.018   3.660   5.185
 2591SOL     OW14299   1.138   1.656   6.199
 2591SOL    HW114300   1.230   1.621   6.183
 2591SOL    HW214301   1.081   1.584   6.239
 2592SOL     OW14302   5.072   0.150   5.395
 2592SOL    HW114303   5.085   0.063   5.443
 2592SOL    HW214304   5.049   0.222   5.461
 2593SOL     OW14305   1.447   1.174   6.040
 2593SOL    HW114306   1.458   1.268   6.074
 2593SOL    HW214307   1.537   1.133   6.026
 2594SOL     OW14308   6.211   6.059   0.199
 2594SOL    HW114309   6.134   6.090   0.144
 2594SOL    HW214310   6.179   5.991   0.265
 2595SOL     OW14311   2.799   4.639   0.115
 2595SOL    HW114312   2.712   4.673   0.080
 2595SOL    HW214313   2.851   4.715   0.155
 2596SOL     OW14314   6.202   2.978   6.712
 2596SOL    HW114315   6.248   2.922   6.643
 2596SOL    HW214316   6.140   2.922   6.766
 2597SOL     OW14317   4.203   0.568   1.417
 2597SOL    HW114318   4.202   0.589   1.515
 2597SOL    HW214319   4.110   0.552   1.385
 2598SOL     OW14320   1.107   1.851   0.095
 2598SOL    HW114321   1.141   1.861   0.001
 2598SOL    HW214322   1.149   1.921   0.153
 2599SOL     OW14323   2.172   3.001   7.282
 2599SOL    HW114324   2.225   2.926   7.321
 2599SOL    HW214325   2.213   3.089   7.307
 2600SOL     OW14326   0.722   0.956   0.148
 2600SOL    HW114327   0.728   1.010   0.064
 2600SOL    HW214328   0.801   0.974   0.206
 2601SOL     OW14329   4.319   1.884   1.521
 2601SOL    HW114330   4.401   1.872   1.578
 2601SOL    HW214331   4.327   1.826   1.440
 2602SOL     OW14332   2.191   1.529   7.064
 2602SOL    HW114333   2.122   1.458   7.072
 2602SOL    HW214334   2.197   1.560   6.969
 2603SOL     OW14335   0.767   1.135   0.957
 2603SOL    HW114336   0.764   1.225   1.000
 2603SOL    HW214337   0.677   1.093   0.963
 2604SOL     OW14338   4.317   4.832   5.963
 2604SOL    HW114339   4.246   4.896   5.994
 2604SOL    HW214340   4.368   4.872   5.887
 2605SOL     OW14341   4.171   3.202   0.646
 2605SOL    HW114342   4.116   3.118   0.650
 2605SOL    HW214343   4.257   3.183   0.598
 2606SOL     OW14344   1.494   3.857   1.099
 2606SOL    HW114345   1.434   3.789   1.141
 2606SOL    HW214346   1.574   3.812   1.060
 2607SOL     OW14347   0.096   1.815   1.210
 2607SOL    HW114348   0.050   1.846   1.293
 2607SOL    HW214349   0.168   1.881   1.185
 2608SOL     OW14350   1.287   0.409   7.411
 2608SOL    HW114351   1.385   0.395   7.398
 2608SOL    HW214352   1.238   0.326   7.387
 2609SOL     OW14353   3.669   4.675   0.163
 2609SOL    HW114354   3.657   4.764   0.207
 2609SOL    HW214355   3.638   4.603   0.225
 2610SOL     OW14356   1.028   4.604   6.138
 2610SOL    HW114357   1.014   4.606   6.237
 2610SOL    HW214358   0.940   4.595   6.092
 2611SOL     OW14359   6.164   1.608   0.833
 2611SOL    HW114360   6.143   1.706   0.843
 2611SOL    HW214361   6.101   1.566   0.768
 2612SOL     OW14362   2.863   1.834   1.015
 2612SOL    HW114363   2.861   1.744   0.972
 2612SOL    HW214364   2.824   1.829   1.107
 2613SOL     OW14365   0.643   1.845   0.592
 2613SOL    HW114366   0.646   1.820   0.496
 2613SOL    HW214367   0.736   1.862   0.625
 2614SOL     OW14368   6.562   3.281   6.534
 2614SOL    HW114369   6.462   3.286   6.522
 2614SOL    HW214370   0.003   3.302   6.629
 2615SOL     OW14371   4.465   5.608   6.705
 2615SOL    HW114372   4.532   5.574   6.639
 2615SOL    HW214373   4.494   5.698   6.738
 2616SOL     OW14374   5.711   6.269   5.297
 2616SOL    HW114375   5.784   6.203   5.277
 2616SOL    HW214376   5.629   6.246   5.245
 2617SOL     OW14377   2.060   0.130   0.597
 2617SOL    HW114378   2.074   0.200   0.667
 2617SOL    HW214379   2.123   0.146   0.521
 2618SOL     OW14380   1.377   0.407   6.670
 2618SOL    HW114381   1.286   0.367   6.658
 2618SOL    HW214382   1.368   0.497   6.713
 2619SOL     OW14383   1.995   4.144   1.919
 2619SOL    HW114384   1.915   4.124   1.976
 2619SOL    HW214385   1.973   4.218   1.856
 2620SOL     OW14386   5.416   4.959   0.455
 2620SOL    HW114387   5.446   4.989   0.364
 2620SOL    HW214388   5.495   4.926   0.507
 2621SOL     OW14389   3.625   4.923   1.482
 2621SOL    HW114390   3.659   5.017   1.490
 2621SOL    HW214391   3.526   4.924   1.469
 2622SOL     OW14392   1.593   1.203   5.453
 2622SOL    HW114393   1.591   1.258   5.370
 2622SOL    HW214394   1.545   1.117   5.437
 2623SOL     OW14395   0.010   5.082   7.136
 2623SOL    HW114396   6.500   5.043   7.128
 2623SOL    HW214397   0.010   5.150   7.210
 2624SOL     OW14398   5.403   0.825   0.072
 2624SOL    HW114399   5.461   0.744   0.076
 2624SOL    HW214400   5.313   0.800   0.038
 2625SOL     OW14401   1.105   1.567   0.589
 2625SOL    HW114402   1.108   1.646   0.650
 2625SOL    HW214403   1.016   1.564   0.543
 2626SOL     OW14404   4.451   0.554   0.944
 2626SOL    HW114405   4.470   0.585   1.038
 2626SOL    HW214406   4.537   0.536   0.897
 2627SOL     OW14407   4.989   0.429   0.129
 2627SOL    HW114408   4.910   0.389   0.176
 2627SOL    HW214409   5.006   0.521   0.165
 2628SOL     OW14410   3.165   2.135   0.781
 2628SOL    HW114411   3.132   2.097   0.867
 2628SOL    HW214412   3.116   2.220   0.760
 2629SOL     OW14413   4.007   2.733   0.683
 2629SOL    HW114414   4.008   2.833   0.678
 2629SOL    HW214415   4.090   2.697   0.640
 2630SOL     OW14416   5.685   0.913   6.575
 2630SOL    HW114417   5.600   0.965   6.562
 2630SOL    HW214418   5.662   0.820   6.605
 2631SOL     OW14419   3.804   0.149   6.524
 2631SOL    HW114420   3.821   0.238   6.567
 2631SOL    HW214421   3.848   0.077   6.578
 2632SOL     OW14422   0.917   3.165   0.011
 2632SOL    HW114423   0.940   3.190   7.331
 2632SOL    HW214424   0.971   3.086   0.038
 2633SOL     OW14425   0.117   3.487   0.853
 2633SOL    HW114426   0.117   3.397   0.897
 2633SOL    HW214427   0.191   3.542   0.891
 2634SOL     OW14428   2.215   4.762   6.538
 2634SOL    HW114429   2.280   4.689   6.555
 2634SOL    HW214430   2.178   4.795   6.626
 2635SOL     OW14431   3.157   4.794   0.393
 2635SOL    HW114432   3.255   4.782   0.380
 2635SOL    HW214433   3.115   4.705   0.414
 2636SOL     OW14434   4.350   1.666   6.581
 2636SOL    HW114435   4.280   1.603   6.615
 2636SOL    HW214436   4.336   1.756   6.621
 2637SOL     OW14437   5.135   0.325   1.252
 2637SOL    HW114438   5.110   0.256   1.321
 2637SOL    HW214439   5.052   0.355   1.204
 2638SOL     OW14440   1.005   3.848   6.242
 2638SOL    HW114441   1.001   3.923   6.176
 2638SOL    HW214442   0.913   3.812   6.257
 2639SOL     OW14443   0.619   6.177   7.036
 2639SOL    HW114444   0.572   6.179   7.123
 2639SOL    HW214445   0.645   6.270   7.009
 2640SOL     OW14446   3.012   2.112   5.777
 2640SOL    HW114447   3.060   2.117   5.690
 2640SOL    HW214448   2.991   2.017   5.799
 2641SOL     OW14449   2.718   1.254   6.006
 2641SOL    HW114450   2.708   1.155   5.993
 2641SOL    HW214451   2.784   1.271   6.078
 2642SOL     OW14452   5.655   0.678   6.265
 2642SOL    HW114453   5.700   0.767   6.275
 2642SOL    HW214454   5.556   0.691   6.270
 2643SOL     OW14455   6.080   2.853   0.370
 2643SOL    HW114456   6.044   2.897   0.452
 2643SOL    HW214457   6.025   2.879   0.291
 2644SOL     OW14458   1.236   5.100   7.386
 2644SOL    HW114459   1.165   5.038   7.352
 2644SOL    HW214460   1.299   5.124   7.312
 2645SOL     OW14461   0.246   3.242   6.042
 2645SOL    HW114462   0.162   3.221   6.092
 2645SOL    HW214463   0.240   3.207   5.949
 2646SOL     OW14464   1.447   0.066   7.328
 2646SOL    HW114465   1.488   0.013   7.253
 2646SOL    HW214466   1.489   0.156   7.331
 2647SOL     OW14467   0.380   5.847   6.466
 2647SOL    HW114468   0.291   5.804   6.452
 2647SOL    HW214469   0.379   5.940   6.430
 2648SOL     OW14470   3.358   3.211   6.591
 2648SOL    HW114471   3.284   3.206   6.524
 2648SOL    HW214472   3.319   3.222   6.682
 2649SOL     OW14473   4.880   3.526   6.471
 2649SOL    HW114474   4.802   3.582   6.444
 2649SOL    HW214475   4.944   3.582   6.524
 2650SOL     OW14476   3.349   1.023   6.975
 2650SOL    HW114477   3.301   1.088   6.915
 2650SOL    HW214478   3.283   0.959   7.014
 2651SOL     OW14479   6.573   3.732   0.461
 2651SOL    HW114480   0.071   3.790   0.440
 2651SOL    HW214481   0.022   3.648   0.506
 2652SOL     OW14482   2.854   4.754   1.560
 2652SOL    HW114483   2.954   4.746   1.570
 2652SOL    HW214484   2.813   4.772   1.649
 2653SOL     OW14485   0.244   1.540   0.789
 2653SOL    HW114486   0.335   1.578   0.774
 2653SOL    HW214487   0.212   1.565   0.880
 2654SOL     OW14488   0.367   1.530   0.397
 2654SOL    HW114489   0.281   1.526   0.448
 2654SOL    HW214490   0.390   1.439   0.362
 2655SOL     OW14491   1.637   4.508   7.165
 2655SOL    HW114492   1.712   4.524   7.100
 2655SOL    HW214493   1.656   4.425   7.217
 2656SOL     OW14494   4.936   0.077   5.798
 2656SOL    HW114495   4.987   0.163   5.809
 2656SOL    HW214496   5.000   0.001   5.792
 2657SOL     OW14497   5.793   1.043   1.541
 2657SOL    HW114498   5.878   0.991   1.550
 2657SOL    HW214499   5.761   1.071   1.631
 2658SOL     OW14500   0.382   2.154   0.862
 2658SOL    HW114501   0.426   2.102   0.935
 2658SOL    HW214502   0.402   2.111   0.774
 2659SOL     OW14503   2.372   4.496   0.722
 2659SOL    HW114504   2.411   4.411   0.687
 2659SOL    HW214505   2.306   4.531   0.656
 2660SOL     OW14506   0.771   0.813   6.577
 2660SOL    HW114507   0.848   0.796   6.515
 2660SOL    HW214508   0.706   0.875   6.532
 2661SOL     OW14509   3.190   4.494   0.181
 2661SOL    HW114510   3.239   4.574   0.148
 2661SOL    HW214511   3.254   4.418   0.194
 2662SOL     OW14512   3.519   3.294   7.129
 2662SOL    HW114513   3.556   3.287   7.036
 2662SOL    HW214514   3.451   3.222   7.143
 2663SOL     OW14515   0.419   1.898   7.060
 2663SOL    HW114516   0.456   1.965   7.123
 2663SOL    HW214517   0.493   1.843   7.022
 2664SOL     OW14518   2.928   5.895   7.411
 2664SOL    HW114519   2.955   5.804   7.377
 2664SOL    HW214520   2.956   5.965   7.345
 2665SOL     OW14521   1.473   0.954   5.445
 2665SOL    HW114522   1.549   0.897   5.414
 2665SOL    HW214523   1.386   0.909   5.421
 2666SOL     OW14524   3.322   1.073   1.210
 2666SOL    HW114525   3.377   1.062   1.292
 2666SOL    HW214526   3.364   1.144   1.152
 2667SOL     OW14527   5.720   2.977   1.214
 2667SOL    HW114528   5.652   3.049   1.230
 2667SOL    HW214529   5.753   2.983   1.120
 2668SOL     OW14530   6.311   4.026   5.744
 2668SOL    HW114531   6.254   4.104   5.720
 2668SOL    HW214532   6.361   4.046   5.829
 2669SOL     OW14533   5.624   1.855   6.561
 2669SOL    HW114534   5.583   1.945   6.550
 2669SOL    HW214535   5.605   1.799   6.480
 2670SOL     OW14536   6.137   2.154   0.277
 2670SOL    HW114537   6.120   2.116   0.186
 2670SOL    HW214538   6.235   2.166   0.290
 2671SOL     OW14539   4.955   0.352   7.279
 2671SOL    HW114540   4.968   0.385   7.373
 2671SOL    HW214541   4.897   0.417   7.229
 2672SOL     OW14542   1.486   4.586   6.506
 2672SOL    HW114543   1.500   4.647   6.584
 2672SOL    HW214544   1.569   4.585   6.449
 2673SOL     OW14545   6.574   1.623   2.165
 2673SOL    HW114546   0.013   1.556   2.095
 2673SOL    HW214547   6.475   1.628   2.178
 2674SOL     OW14548   5.285   5.592   2.141
 2674SOL    HW114549   5.208   5.561   2.198
 2674SOL    HW214550   5.327   5.673   2.184
 2675SOL     OW14551   1.460   5.312   6.818
 2675SOL    HW114552   1.412   5.400   6.814
 2675SOL    HW214553   1.511   5.305   6.904
 2676SOL     OW14554   6.105   2.063   0.008
 2676SOL    HW114555   6.103   1.966   7.397
 2676SOL    HW214556   6.013   2.101   0.004
 2677SOL     OW14557   1.854   2.770   0.793
 2677SOL    HW114558   1.822   2.864   0.778
 2677SOL    HW214559   1.952   2.765   0.775
 2678SOL     OW14560   4.541   3.867   0.075
 2678SOL    HW114561   4.633   3.905   0.083
 2678SOL    HW214562   4.494   3.909   7.411
 2679SOL     OW14563   2.093   1.942   1.294
 2679SOL    HW114564   2.111   1.869   1.229
 2679SOL    HW214565   1.998   1.936   1.325
 2680SOL     OW14566   5.473   3.864   6.495
 2680SOL    HW114567   5.389   3.819   6.526
 2680SOL    HW214568   5.454   3.917   6.413
 2681SOL     OW14569   3.062   2.372   5.839
 2681SOL    HW114570   3.045   2.414   5.750
 2681SOL    HW214571   3.041   2.274   5.834
 2682SOL     OW14572   0.102   5.028   5.871
 2682SOL    HW114573   0.007   5.060   5.880
 2682SOL    HW214574   0.157   5.068   5.944
 2683SOL     OW14575   1.143   0.492   7.008
 2683SOL    HW114576   1.085   0.538   6.941
 2683SOL    HW214577   1.152   0.395   6.983
 2684SOL     OW14578   5.375   3.278   6.363
 2684SOL    HW114579   5.283   3.312   6.382
 2684SOL    HW214580   5.384   3.261   6.265
 2685SOL     OW14581   1.485   1.214   7.160
 2685SOL    HW114582   1.519   1.183   7.071
 2685SOL    HW214583   1.490   1.314   7.163
 2686SOL     OW14584   0.723   4.105   0.489
 2686SOL    HW114585   0.685   4.104   0.581
 2686SOL    HW214586   0.683   4.031   0.435
 2687SOL     OW14587   3.555   2.619   1.068
 2687SOL    HW114588   3.558   2.710   1.107
 2687SOL    HW214589   3.581   2.622   0.971
 2688SOL     OW14590   5.433   3.997   6.259
 2688SOL    HW114591   5.501   3.980   6.188
 2688SOL    HW214592   5.342   3.973   6.225
 2689SOL     OW14593   4.287   3.743   6.870
 2689SOL    HW114594   4.338   3.739   6.956
 2689SOL    HW214595   4.287   3.652   6.828
 2690SOL     OW14596   0.474   0.374   0.507
 2690SOL    HW114597   0.500   0.470   0.514
 2690SOL    HW214598   0.446   0.340   0.596
 2691SOL     OW14599   2.322   3.562   1.006
 2691SOL    HW114600   2.401   3.607   1.048
 2691SOL    HW214601   2.268   3.517   1.077
 2692SOL     OW14602   5.588   2.790   7.387
 2692SOL    HW114603   5.595   2.888   7.407
 2692SOL    HW214604   5.677   2.747   7.403
 2693SOL     OW14605   2.015   1.378   6.785
 2693SOL    HW114606   2.022   1.278   6.787
 2693SOL    HW214607   2.071   1.414   6.711
 2694SOL     OW14608   2.327   2.173   6.754
 2694SOL    HW114609   2.293   2.083   6.783
 2694SOL    HW214610   2.288   2.244   6.813
 2695SOL     OW14611   0.046   4.230   6.542
 2695SOL    HW114612   0.061   4.254   6.447
 2695SOL    HW214613   0.081   4.303   6.601
 2696SOL     OW14614   5.569   2.263   6.314
 2696SOL    HW114615   5.623   2.329   6.365
 2696SOL    HW214616   5.487   2.307   6.277
 2697SOL     OW14617   5.691   4.422   6.748
 2697SOL    HW114618   5.593   4.430   6.766
 2697SOL    HW214619   5.740   4.491   6.802
 2698SOL     OW14620   0.495   1.683   0.761
 2698SOL    HW114621   0.542   1.741   0.695
 2698SOL    HW214622   0.562   1.630   0.813
 2699SOL     OW14623   3.576   6.447   6.752
 2699SOL    HW114624   3.551   0.051   6.697
 2699SOL    HW214625   3.649   6.473   6.815
 2700SOL     OW14626   5.117   5.672   6.535
 2700SOL    HW114627   5.102   5.760   6.491
 2700SOL    HW214628   5.163   5.610   6.471
 2701SOL     OW14629   3.944   3.125   6.081
 2701SOL    HW114630   3.885   3.206   6.076
 2701SOL    HW214631   3.933   3.071   5.998
 2702SOL     OW14632   6.114   0.904   0.469
 2702SOL    HW114633   6.111   0.930   0.372
 2702SOL    HW214634   6.101   0.986   0.526
 2703SOL     OW14635   6.488   4.353   6.081
 2703SOL    HW114636   6.401   4.361   6.033
 2703SOL    HW214637   6.526   4.444   6.097
 2704SOL     OW14638   5.488   2.088   6.505
 2704SOL    HW114639   5.524   2.140   6.428
 2704SOL    HW214640   5.465   2.150   6.580
 2705SOL     OW14641   0.142   5.736   6.379
 2705SOL    HW114642   0.088   5.810   6.418
 2705SOL    HW214643   0.095   5.700   6.298
 2706SOL     OW14644   2.850   2.950   1.592
 2706SOL    HW114645   2.916   3.023   1.612
 2706SOL    HW214646   2.842   2.890   1.671
 2707SOL     OW14647   6.540   2.453   6.743
 2707SOL    HW114648   6.467   2.485   6.803
 2707SOL    HW214649   6.557   2.356   6.760
 2708SOL     OW14650   3.916   2.984   5.849
 2708SOL    HW114651   3.836   3.007   5.794
 2708SOL    HW214652   3.999   2.994   5.793
 2709SOL     OW14653   4.688   3.332   6.397
 2709SOL    HW114654   4.765   3.381   6.438
 2709SOL    HW214655   4.660   3.378   6.313
 2710SOL     OW14656   2.179   1.989   7.190
 2710SOL    HW114657   2.178   1.891   7.212
 2710SOL    HW214658   2.181   2.042   7.275
 2711SOL     OW14659   0.279   3.026   0.925
 2711SOL    HW114660   0.236   2.965   0.858
 2711SOL    HW214661   0.291   2.977   1.012
 2712SOL     OW14662   1.446   0.644   5.446
 2712SOL    HW114663   1.532   0.688   5.419
 2712SOL    HW214664   1.369   0.700   5.417
 2713SOL     OW14665   2.261   3.809   0.246
 2713SOL    HW114666   2.265   3.865   0.329
 2713SOL    HW214667   2.353   3.796   0.210
 2714SOL     OW14668   3.508   6.341   0.193
 2714SOL    HW114669   3.519   6.249   0.233
 2714SOL    HW214670   3.594   6.391   0.202
 2715SOL     OW14671   1.960   4.332   0.909
 2715SOL    HW114672   1.970   4.257   0.843
 2715SOL    HW214673   2.051   4.363   0.937
 2716SOL     OW14674   0.666   4.452   6.422
 2716SOL    HW114675   0.708   4.537   6.455
 2716SOL    HW214676   0.595   4.423   6.487
 2717SOL     OW14677   2.910   5.404   1.055
 2717SOL    HW114678   2.882   5.434   1.146
 2717SOL    HW214679   2.964   5.475   1.011
 2718SOL     OW14680   2.178   6.122   0.563
 2718SOL    HW114681   2.130   6.041   0.596
 2718SOL    HW214682   2.112   6.191   0.536
 2719SOL     OW14683   1.338   4.411   1.351
 2719SOL    HW114684   1.284   4.479   1.401
 2719SOL    HW214685   1.282   4.331   1.332
 2720SOL     OW14686   3.335   3.211   0.069
 2720SOL    HW114687   3.306   3.117   0.087
 2720SOL    HW214688   3.337   3.262   0.155
 2721SOL     OW14689   4.715   5.418   1.115
 2721SOL    HW114690   4.667   5.501   1.087
 2721SOL    HW214691   4.795   5.404   1.057
 2722SOL     OW14692   1.758   3.937   0.014
 2722SOL    HW114693   1.664   3.918   0.041
 2722SOL    HW214694   1.769   3.920   7.330
 2723SOL     OW14695   0.025   5.263   6.082
 2723SOL    HW114696   0.105   5.204   6.093
 2723SOL    HW214697   6.538   5.215   6.027
 2724SOL     OW14698   1.993   4.678   6.386
 2724SOL    HW114699   2.057   4.703   6.459
 2724SOL    HW214700   2.045   4.651   6.305
 2725SOL     OW14701   0.939   0.915   6.771
 2725SOL    HW114702   0.905   0.901   6.864
 2725SOL    HW214703   0.869   0.886   6.705
 2726SOL     OW14704   6.454   4.706   1.328
 2726SOL    HW114705   6.524   4.747   1.386
 2726SOL    HW214706   6.489   4.696   1.235
 2727SOL     OW14707   2.299   3.042   6.949
 2727SOL    HW114708   2.312   3.104   7.027
 2727SOL    HW214709   2.238   2.968   6.975
 2728SOL     OW14710   4.964   4.243   1.599
 2728SOL    HW114711   5.029   4.303   1.645
 2728SOL    HW214712   5.012   4.185   1.533
 2729SOL     OW14713   4.803   2.864   6.172
 2729SOL    HW114714   4.758   2.945   6.210
 2729SOL    HW214715   4.878   2.892   6.112
 2730SOL     OW14716   1.062   2.627   5.431
 2730SOL    HW114717   1.054   2.589   5.338
 2730SOL    HW214718   0.970   2.645   5.467
 2731SOL     OW14719   1.597   4.875   0.315
 2731SOL    HW114720   1.521   4.925   0.275
 2731SOL    HW214721   1.662   4.850   0.243
 2732SOL     OW14722   0.183   0.938   0.224
 2732SOL    HW114723   0.273   0.954   0.185
 2732SOL    HW214724   0.113   0.976   0.163
 2733SOL     OW14725   0.861   4.165   6.787
 2733SOL    HW114726   0.915   4.170   6.872
 2733SOL    HW214727   0.770   4.203   6.803
 2734SOL     OW14728   2.986   1.108   0.605
 2734SOL    HW114729   2.953   1.026   0.651
 2734SOL    HW214730   2.910   1.172   0.592
 2735SOL     OW14731   5.529   4.918   1.083
 2735SOL    HW114732   5.559   4.984   1.151
 2735SOL    HW214733   5.464   4.961   1.020
 2736SOL     OW14734   6.410   1.881   0.292
 2736SOL    HW114735   6.338   1.851   0.355
 2736SOL    HW214736   6.495   1.832   0.312
 2737SOL     OW14737   2.836   3.154   0.642
 2737SOL    HW114738   2.873   3.174   0.552
 2737SOL    HW214739   2.867   3.064   0.672
 2738SOL     OW14740   5.366   1.193   6.750
 2738SOL    HW114741   5.423   1.145   6.683
 2738SOL    HW214742   5.416   1.201   6.836
 2739SOL     OW14743   4.920   1.731   7.030
 2739SOL    HW114744   4.966   1.778   7.106
 2739SOL    HW214745   4.845   1.788   6.997
 2740SOL     OW14746   5.792   1.236   1.357
 2740SOL    HW114747   5.831   1.322   1.390
 2740SOL    HW214748   5.798   1.167   1.429
 2741SOL     OW14749   6.572   5.122   0.928
 2741SOL    HW114750   0.086   5.111   0.901
 2741SOL    HW214751   6.556   5.073   1.013
 2742SOL     OW14752   0.518   2.624   1.207
 2742SOL    HW114753   0.452   2.673   1.265
 2742SOL    HW214754   0.483   2.622   1.113
 2743SOL     OW14755   3.896   4.879   2.158
 2743SOL    HW114756   3.858   4.788   2.143
 2743SOL    HW214757   3.841   4.928   2.225
 2744SOL     OW14758   2.131   5.338   0.346
 2744SOL    HW114759   2.229   5.357   0.342
 2744SOL    HW214760   2.109   5.296   0.434
 2745SOL     OW14761   3.731   2.189   6.150
 2745SOL    HW114762   3.735   2.272   6.206
 2745SOL    HW214763   3.638   2.176   6.117
 2746SOL     OW14764   0.666   2.864   6.519
 2746SOL    HW114765   0.717   2.803   6.580
 2746SOL    HW214766   0.666   2.957   6.557
 2747SOL     OW14767   4.217   0.694   6.022
 2747SOL    HW114768   4.145   0.679   5.954
 2747SOL    HW214769   4.236   0.608   6.070
 2748SOL     OW14770   4.429   2.076   1.034
 2748SOL    HW114771   4.482   1.993   1.013
 2748SOL    HW214772   4.345   2.050   1.081
 2749SOL     OW14773   5.412   3.062   7.260
 2749SOL    HW114774   5.439   3.125   7.187
 2749SOL    HW214775   5.489   3.048   7.322
 2750SOL     OW14776   0.820   3.722   5.517
 2750SOL    HW114777   0.856   3.718   5.423
 2750SOL    HW214778   0.893   3.750   5.579
 2751SOL     OW14779   3.878   1.165   1.401
 2751SOL    HW114780   3.799   1.180   1.461
 2751SOL    HW214781   3.919   1.076   1.422
 2752SOL     OW14782   1.299   0.624   0.626
 2752SOL    HW114783   1.200   0.612   0.616
 2752SOL    HW214784   1.317   0.711   0.673
 2753SOL     OW14785   6.353   4.295   7.122
 2753SOL    HW114786   6.384   4.202   7.143
 2753SOL    HW214787   6.412   4.361   7.168
 2754SOL     OW14788   5.467   3.910   0.324
 2754SOL    HW114789   5.522   3.828   0.343
 2754SOL    HW214790   5.507   3.988   0.371
 2755SOL     OW14791   6.439   1.279   1.599
 2755SOL    HW114792   6.453   1.376   1.621
 2755SOL    HW214793   6.372   1.240   1.661
 2756SOL     OW14794   4.548   4.868   0.623
 2756SOL    HW114795   4.472   4.909   0.572
 2756SOL    HW214796   4.529   4.771   0.638
 2757SOL     OW14797   2.691   1.461   1.126
 2757SOL    HW114798   2.591   1.464   1.121
 2757SOL    HW214799   2.719   1.408   1.206
 2758SOL     OW14800   5.801   5.950   0.872
 2758SOL    HW114801   5.833   5.859   0.847
 2758SOL    HW214802   5.877   6.014   0.869
 2759SOL     OW14803   0.676   0.887   5.851
 2759SOL    HW114804   0.597   0.852   5.900
 2759SOL    HW214805   0.646   0.953   5.782
 2760SOL     OW14806   5.727   1.249   1.013
 2760SOL    HW114807   5.628   1.240   1.026
 2760SOL    HW214808   5.774   1.175   1.061
 2761SOL     OW14809   5.571   3.912   0.933
 2761SOL    HW114810   5.506   3.885   0.862
 2761SOL    HW214811   5.551   4.005   0.963
 2762SOL     OW14812   1.862   3.710   6.033
 2762SOL    HW114813   1.946   3.761   6.017
 2762SOL    HW214814   1.829   3.672   5.947
 2763SOL     OW14815   2.502   5.160   0.443
 2763SOL    HW114816   2.577   5.181   0.506
 2763SOL    HW214817   2.441   5.093   0.486
 2764SOL     OW14818   2.746   0.093   7.238
 2764SOL    HW114819   2.734   0.065   7.142
 2764SOL    HW214820   2.663   0.073   7.290
 2765SOL     OW14821   3.780   2.672   0.549
 2765SOL    HW114822   3.863   2.697   0.599
 2765SOL    HW214823   3.779   2.573   0.534
 2766SOL     OW14824   2.199   3.721   5.633
 2766SOL    HW114825   2.187   3.756   5.539
 2766SOL    HW214826   2.139   3.643   5.647
 2767SOL     OW14827   4.938   2.345   7.235
 2767SOL    HW114828   4.840   2.330   7.250
 2767SOL    HW214829   4.966   2.428   7.284
 2768SOL     OW14830   4.853   1.898   1.515
 2768SOL    HW114831   4.778   1.895   1.449
 2768SOL    HW214832   4.817   1.885   1.607
 2769SOL     OW14833   6.238   5.908   1.214
 2769SOL    HW114834   6.213   5.879   1.306
 2769SOL    HW214835   6.232   5.829   1.152
 2770SOL     OW14836   4.158   2.975   6.513
 2770SOL    HW114837   4.238   3.030   6.487
 2770SOL    HW214838   4.104   2.954   6.431
 2771SOL     OW14839   0.688   0.473   5.917
 2771SOL    HW114840   0.743   0.413   5.860
 2771SOL    HW214841   0.592   0.446   5.912
 2772SOL     OW14842   3.698   6.017   7.109
 2772SOL    HW114843   3.656   6.022   7.019
 2772SOL    HW214844   3.727   5.923   7.128
 2773SOL     OW14845   0.705   4.673   7.257
 2773SOL    HW114846   0.783   4.610   7.260
 2773SOL    HW214847   0.732   4.759   7.213
 2774SOL     OW14848   4.278   2.142   0.119
 2774SOL    HW114849   4.197   2.137   0.177
 2774SOL    HW214850   4.276   2.229   0.069
 2775SOL     OW14851   2.002   6.022   6.577
 2775SOL    HW114852   2.076   6.039   6.512
 2775SOL    HW214853   2.038   6.026   6.671
 2776SOL     OW14854   0.506   4.122   1.641
 2776SOL    HW114855   0.573   4.179   1.688
 2776SOL    HW214856   0.504   4.031   1.683
 2777SOL     OW14857   3.143   0.884   7.096
 2777SOL    HW114858   3.112   0.965   7.145
 2777SOL    HW214859   3.080   0.863   7.022
 2778SOL     OW14860   0.159   2.869   0.739
 2778SOL    HW114861   0.118   2.805   0.803
 2778SOL    HW214862   0.229   2.821   0.684
 2779SOL     OW14863   3.467   4.714   0.815
 2779SOL    HW114864   3.523   4.751   0.889
 2779SOL    HW214865   3.380   4.681   0.852
 2780SOL     OW14866   3.806   5.541   1.098
 2780SOL    HW114867   3.874   5.468   1.096
 2780SOL    HW214868   3.770   5.556   1.006
 2781SOL     OW14869   1.353   3.094   0.683
 2781SOL    HW114870   1.282   3.032   0.650
 2781SOL    HW214871   1.416   3.044   0.742
 2782SOL     OW14872   0.609   0.971   6.419
 2782SOL    HW114873   0.609   0.930   6.328
 2782SOL    HW214874   0.618   1.070   6.411
 2783SOL     OW14875   5.437   6.190   5.517
 2783SOL    HW114876   5.420   6.244   5.599
 2783SOL    HW214877   5.521   6.137   5.528
 2784SOL     OW14878   5.245   2.185   6.043
 2784SOL    HW114879   5.206   2.127   6.113
 2784SOL    HW214880   5.194   2.174   5.957
 2785SOL     OW14881   4.409   3.428   5.682
 2785SOL    HW114882   4.489   3.382   5.644
 2785SOL    HW214883   4.337   3.361   5.699
 2786SOL     OW14884   2.973   4.222   6.637
 2786SOL    HW114885   2.953   4.277   6.556
 2786SOL    HW214886   2.927   4.262   6.716
 2787SOL     OW14887   0.800   2.321   0.549
 2787SOL    HW114888   0.850   2.313   0.463
 2787SOL    HW214889   0.859   2.296   0.626
 2788SOL     OW14890   4.812   1.933   0.430
 2788SOL    HW114891   4.907   1.950   0.456
 2788SOL    HW214892   4.765   2.020   0.414
 2789SOL     OW14893   0.114   2.197   1.311
 2789SOL    HW114894   0.094   2.178   1.407
 2789SOL    HW214895   0.176   2.126   1.275
 2790SOL     OW14896   3.313   2.923   1.240
 2790SOL    HW114897   3.288   2.992   1.309
 2790SOL    HW214898   3.261   2.840   1.257
 2791SOL     OW14899   2.270   2.035   6.133
 2791SOL    HW114900   2.273   2.112   6.070
 2791SOL    HW214901   2.327   2.055   6.213
 2792SOL     OW14902   5.375   0.611   6.565
 2792SOL    HW114903   5.347   0.696   6.610
 2792SOL    HW214904   5.341   0.533   6.616
 2793SOL     OW14905   5.018   4.370   7.373
 2793SOL    HW114906   5.002   4.371   7.274
 2793SOL    HW214907   5.104   4.322   7.392
 2794SOL     OW14908   6.464   3.921   6.334
 2794SOL    HW114909   6.402   3.941   6.258
 2794SOL    HW214910   6.414   3.928   6.420
 2795SOL     OW14911   0.227   4.557   0.960
 2795SOL    HW114912   0.276   4.596   0.882
 2795SOL    HW214913   0.285   4.560   1.041
 2796SOL     OW14914   6.136   6.135   5.966
 2796SOL    HW114915   6.151   6.092   6.055
 2796SOL    HW214916   6.199   6.095   5.899
 2797SOL     OW14917   4.247   4.082   1.518
 2797SOL    HW114918   4.271   4.039   1.605
 2797SOL    HW214919   4.148   4.090   1.511
 2798SOL     OW14920   2.338   0.926   0.570
 2798SOL    HW114921   2.295   0.954   0.656
 2798SOL    HW214922   2.289   0.847   0.533
 2799SOL     OW14923   0.910   1.591   5.775
 2799SOL    HW114924   0.975   1.639   5.834
 2799SOL    HW214925   0.913   1.631   5.684
 2800SOL     OW14926   1.888   5.763   6.401
 2800SOL    HW114927   1.931   5.718   6.479
 2800SOL    HW214928   1.799   5.799   6.429
 2801SOL     OW14929   3.862   2.300   0.298
 2801SOL    HW114930   3.848   2.338   0.389
 2801SOL    HW214931   3.777   2.258   0.266
 2802SOL     OW14932   2.684   2.433   6.358
 2802SOL    HW114933   2.752   2.372   6.319
 2802SOL    HW214934   2.593   2.409   6.324
 2803SOL     OW14935   3.677   4.833   6.803
 2803SOL    HW114936   3.695   4.841   6.901
 2803SOL    HW214937   3.748   4.880   6.752
 2804SOL     OW14938   4.322   5.581   1.218
 2804SOL    HW114939   4.398   5.537   1.265
 2804SOL    HW214940   4.253   5.608   1.285
 2805SOL     OW14941   2.009   5.906   0.249
 2805SOL    HW114942   2.087   5.861   0.292
 2805SOL    HW214943   1.980   5.853   0.169
 2806SOL     OW14944   2.954   3.959   6.546
 2806SOL    HW114945   2.957   4.050   6.588
 2806SOL    HW214946   3.035   3.945   6.489
 2807SOL     OW14947   5.067   3.724   6.551
 2807SOL    HW114948   5.035   3.764   6.465
 2807SOL    HW214949   5.157   3.682   6.536
 2808SOL     OW14950   4.500   1.298   1.408
 2808SOL    HW114951   4.441   1.349   1.345
 2808SOL    HW214952   4.486   1.200   1.395
 2809SOL     OW14953   2.899   2.011   6.900
 2809SOL    HW114954   2.959   2.081   6.860
 2809SOL    HW214955   2.834   2.055   6.962
 2810SOL     OW14956   0.515   2.073   5.829
 2810SOL    HW114957   0.462   2.096   5.747
 2810SOL    HW214958   0.565   2.154   5.860
 2811SOL     OW14959   5.259   6.199   0.581
 2811SOL    HW114960   5.201   6.126   0.616
 2811SOL    HW214961   5.211   6.249   0.508
 2812SOL     OW14962   6.318   1.517   6.837
 2812SOL    HW114963   6.373   1.593   6.873
 2812SOL    HW214964   6.296   1.536   6.741
 2813SOL     OW14965   5.484   1.278   0.668
 2813SOL    HW114966   5.540   1.195   0.673
 2813SOL    HW214967   5.506   1.337   0.745
 2814SOL     OW14968   2.040   4.943   0.209
 2814SOL    HW114969   2.002   5.035   0.219
 2814SOL    HW214970   2.136   4.943   0.237
 2815SOL     OW14971   6.197   2.801   5.641
 2815SOL    HW114972   6.202   2.740   5.720
 2815SOL    HW214973   6.111   2.852   5.644
 2816SOL     OW14974   1.349   3.787   6.520
 2816SOL    HW114975   1.257   3.748   6.531
 2816SOL    HW214976   1.342   3.877   6.477
 2817SOL     OW14977   2.854   1.109   1.258
 2817SOL    HW114978   2.813   1.196   1.284
 2817SOL    HW214979   2.933   1.126   1.199
 2818SOL     OW14980   0.190   5.944   0.849
 2818SOL    HW114981   0.277   5.931   0.897
 2818SOL    HW214982   0.184   6.038   0.815
 2819SOL     OW14983   2.479   1.002   1.099
 2819SOL    HW114984   2.493   1.087   1.150
 2819SOL    HW214985   2.496   1.018   1.002
 2820SOL     OW14986   6.502   2.297   0.527
 2820SOL    HW114987   6.461   2.265   0.442
 2820SOL    HW214988   6.467   2.244   0.604
 2821SOL     OW14989   1.141   1.597   1.130
 2821SOL    HW114990   1.153   1.639   1.220
 2821SOL    HW214991   1.152   1.498   1.138
 2822SOL     OW14992   6.128   5.037   0.611
 2822SOL    HW114993   6.138   4.973   0.534
 2822SOL    HW214994   6.217   5.051   0.654
 2823SOL     OW14995   6.416   0.285   5.571
 2823SOL    HW114996   6.516   0.285   5.562
 2823SOL    HW214997   6.388   0.363   5.628
 2824SOL     OW14998   0.739   5.764   7.087
 2824SOL    HW114999   0.685   5.737   7.007
 2824SOL    HW215000   0.680   5.810   7.153
 2825SOL     OW15001   2.387   4.729   0.441
 2825SOL    HW115002   2.306   4.689   0.484
 2825SOL    HW215003   2.449   4.656   0.413
 2826SOL     OW15004   2.729   1.269   0.055
 2826SOL    HW115005   2.755   1.355   0.012
 2826SOL    HW215006   2.774   1.193   0.008
 2827SOL     OW15007   0.672   0.569   0.716
 2827SOL    HW115008   0.618   0.616   0.646
 2827SOL    HW215009   0.747   0.627   0.746
 2828SOL     OW15010   5.581   1.877   1.830
 2828SOL    HW115011   5.639   1.859   1.910
 2828SOL    HW215012   5.537   1.966   1.841
 2829SOL     OW15013   5.095   4.799   6.463
 2829SOL    HW115014   5.177   4.790   6.519
 2829SOL    HW215015   5.022   4.840   6.518
 2830SOL     OW15016   6.003   5.587   1.855
 2830SOL    HW115017   5.977   5.491   1.847
 2830SOL    HW215018   6.096   5.593   1.891
 2831SOL     OW15019   5.065   0.161   1.459
 2831SOL    HW115020   5.051   0.235   1.524
 2831SOL    HW215021   4.988   0.097   1.464
 2832SOL     OW15022   2.911   2.679   5.834
 2832SOL    HW115023   2.846   2.604   5.822
 2832SOL    HW215024   2.990   2.645   5.887
 2833SOL     OW15025   5.983   3.429   0.012
 2833SOL    HW115026   5.924   3.383   7.359
 2833SOL    HW215027   6.050   3.485   7.378
 2834SOL     OW15028   4.851   1.192   1.458
 2834SOL    HW115029   4.919   1.196   1.530
 2834SOL    HW215030   4.799   1.277   1.456
 2835SOL     OW15031   4.412   3.053   5.601
 2835SOL    HW115032   4.373   3.106   5.526
 2835SOL    HW215033   4.372   2.961   5.601
 2836SOL     OW15034   4.984   3.263   0.839
 2836SOL    HW115035   5.022   3.192   0.780
 2836SOL    HW215036   4.931   3.222   0.913
 2837SOL     OW15037   4.927   2.725   5.653
 2837SOL    HW115038   4.852   2.732   5.588
 2837SOL    HW215039   4.893   2.687   5.739
 2838SOL     OW15040   0.673   3.491   5.537
 2838SOL    HW115041   0.723   3.577   5.528
 2838SOL    HW215042   0.700   3.429   5.463
 2839SOL     OW15043   2.074   0.515   1.671
 2839SOL    HW115044   2.025   0.438   1.713
 2839SOL    HW215045   2.171   0.494   1.667
 2840SOL     OW15046   1.296   6.405   7.021
 2840SOL    HW115047   1.256   6.386   7.111
 2840SOL    HW215048   1.223   6.410   6.953
 2841SOL     OW15049   4.532   5.854   6.811
 2841SOL    HW115050   4.439   5.878   6.838
 2841SOL    HW215051   4.585   5.829   6.893
 2842SOL     OW15052   4.591   5.643   1.026
 2842SOL    HW115053   4.558   5.592   0.946
 2842SOL    HW215054   4.526   5.715   1.048
 2843SOL     OW15055   4.245   6.117   1.806
 2843SOL    HW115056   4.213   6.173   1.883
 2843SOL    HW215057   4.204   6.026   1.812
 2844SOL     OW15058   6.056   4.349   0.589
 2844SOL    HW115059   6.081   4.381   0.498
 2844SOL    HW215060   6.017   4.257   0.582
 2845SOL     OW15061   0.171   3.292   1.493
 2845SOL    HW115062   0.090   3.305   1.436
 2845SOL    HW215063   0.178   3.367   1.558
 2846SOL     OW15064   4.494   0.729   5.996
 2846SOL    HW115065   4.395   0.730   6.009
 2846SOL    HW215066   4.528   0.636   6.006
 2847SOL     OW15067   0.034   3.589   6.823
 2847SOL    HW115068   0.019   3.490   6.823
 2847SOL    HW215069   0.056   3.619   6.916
 2848SOL     OW15070   1.495   6.081   0.513
 2848SOL    HW115071   1.494   6.007   0.445
 2848SOL    HW215072   1.510   6.169   0.466
 2849SOL     OW15073   1.456   6.362   1.226
 2849SOL    HW115074   1.407   6.363   1.313
 2849SOL    HW215075   1.467   6.268   1.194
 2850SOL     OW15076   5.833   2.029   1.059
 2850SOL    HW115077   5.784   1.956   1.105
 2850SOL    HW215078   5.911   1.991   1.009
 2851SOL     OW15079   4.883   0.398   1.143
 2851SOL    HW115080   4.901   0.492   1.116
 2851SOL    HW215081   4.792   0.392   1.184
 2852SOL     OW15082   0.280   4.183   5.824
 2852SOL    HW115083   0.372   4.147   5.813
 2852SOL    HW215084   0.220   4.112   5.860
 2853SOL     OW15085   0.987   3.129   1.303
 2853SOL    HW115086   0.897   3.174   1.297
 2853SOL    HW215087   0.975   3.030   1.299
 2854SOL     OW15088   1.532   0.299   1.047
 2854SOL    HW115089   1.466   0.226   1.067
 2854SOL    HW215090   1.486   0.388   1.052
 2855SOL     OW15091   4.219   0.491   0.543
 2855SOL    HW115092   4.262   0.581   0.540
 2855SOL    HW215093   4.245   0.444   0.627
 2856SOL     OW15094   1.153   1.315   1.156
 2856SOL    HW115095   1.123   1.331   1.250
 2856SOL    HW215096   1.097   1.244   1.114
 2857SOL     OW15097   5.767   3.873   0.565
 2857SOL    HW115098   5.690   3.810   0.579
 2857SOL    HW215099   5.852   3.821   0.564
 2858SOL     OW15100   3.637   2.862   1.426
 2858SOL    HW115101   3.562   2.829   1.484
 2858SOL    HW215102   3.609   2.859   1.330
 2859SOL     OW15103   5.060   0.333   6.111
 2859SOL    HW115104   5.080   0.259   6.174
 2859SOL    HW215105   5.087   0.307   6.019
 2860SOL     OW15106   5.585   2.036   6.152
 2860SOL    HW115107   5.590   2.114   6.215
 2860SOL    HW215108   5.663   1.975   6.168
 2861SOL     OW15109   4.085   1.694   6.327
 2861SOL    HW115110   4.061   1.703   6.424
 2861SOL    HW215111   4.183   1.677   6.318
 2862SOL     OW15112   4.795   1.717   7.348
 2862SOL    HW115113   4.753   1.714   0.025
 2862SOL    HW215114   4.845   1.632   7.331
 2863SOL     OW15115   2.883   1.842   6.083
 2863SOL    HW115116   2.839   1.931   6.095
 2863SOL    HW215117   2.976   1.846   6.120
 2864SOL     OW15118   4.171   5.589   6.084
 2864SOL    HW115119   4.226   5.661   6.042
 2864SOL    HW215120   4.152   5.518   6.017
 2865SOL     OW15121   2.225   0.025   1.615
 2865SOL    HW115122   2.259   6.427   1.673
 2865SOL    HW215123   2.130   0.007   1.589
 2866SOL     OW15124   4.258   1.403   6.333
 2866SOL    HW115125   4.313   1.482   6.305
 2866SOL    HW215126   4.304   1.319   6.307
 2867SOL     OW15127   0.949   5.752   0.475
 2867SOL    HW115128   0.919   5.664   0.511
 2867SOL    HW215129   0.910   5.766   0.384
 2868SOL     OW15130   1.174   3.394   0.875
 2868SOL    HW115131   1.156   3.491   0.889
 2868SOL    HW215132   1.124   3.361   0.794
 2869SOL     OW15133   1.898   3.437   1.134
 2869SOL    HW115134   1.858   3.450   1.043
 2869SOL    HW215135   1.848   3.367   1.184
 2870SOL     OW15136   2.818   3.362   1.827
 2870SOL    HW115137   2.907   3.324   1.850
 2870SOL    HW215138   2.760   3.361   1.909
 2871SOL     OW15139   5.515   0.008   1.871
 2871SOL    HW115140   5.477   0.098   1.893
 2871SOL    HW215141   5.489   6.418   1.942
 2872SOL     OW15142   2.728   3.943   0.412
 2872SOL    HW115143   2.757   3.905   0.325
 2872SOL    HW215144   2.708   4.041   0.402
 2873SOL     OW15145   1.991   3.538   1.997
 2873SOL    HW115146   1.942   3.568   2.080
 2873SOL    HW215147   2.073   3.487   2.024
 2874SOL     OW15148   3.018   6.170   6.455
 2874SOL    HW115149   3.029   6.220   6.369
 2874SOL    HW215150   3.096   6.189   6.515
 2875SOL     OW15151   4.275   1.253   0.875
 2875SOL    HW115152   4.323   1.337   0.902
 2875SOL    HW215153   4.271   1.190   0.953
 2876SOL     OW15154   4.164   1.359   7.077
 2876SOL    HW115155   4.227   1.386   7.004
 2876SOL    HW215156   4.101   1.289   7.043
 2877SOL     OW15157   0.308   0.260   1.766
 2877SOL    HW115158   0.373   0.203   1.716
 2877SOL    HW215159   0.351   0.296   1.849
 2878SOL     OW15160   0.375   2.402   7.070
 2878SOL    HW115161   0.436   2.368   7.142
 2878SOL    HW215162   0.312   2.469   7.109
 2879SOL     OW15163   0.566   5.783   7.361
 2879SOL    HW115164   0.606   5.837   0.020
 2879SOL    HW215165   0.584   5.686   7.377
 2880SOL     OW15166   2.969   2.950   0.068
 2880SOL    HW115167   2.978   2.947   7.383
 2880SOL    HW215168   2.942   3.042   0.096
 2881SOL     OW15169   3.961   5.283   6.958
 2881SOL    HW115170   3.889   5.257   6.893
 2881SOL    HW215171   3.954   5.381   6.977
 2882SOL     OW15172   4.723   1.884   1.757
 2882SOL    HW115173   4.765   1.973   1.776
 2882SOL    HW215174   4.625   1.889   1.775
 2883SOL     OW15175   1.856   3.697   0.124
 2883SOL    HW115176   1.826   3.784   0.086
 2883SOL    HW215177   1.805   3.677   0.208
 2884SOL     OW15178   2.358   1.894   0.173
 2884SOL    HW115179   2.390   1.886   0.079
 2884SOL    HW215180   2.392   1.979   0.213
 2885SOL     OW15181   3.655   4.154   7.096
 2885SOL    HW115182   3.566   4.109   7.109
 2885SOL    HW215183   3.684   4.143   7.001
 2886SOL     OW15184   5.494   1.781   6.800
 2886SOL    HW115185   5.534   1.810   6.714
 2886SOL    HW215186   5.561   1.730   6.853
 2887SOL     OW15187   1.519   0.551   7.143
 2887SOL    HW115188   1.457   0.558   7.064
 2887SOL    HW215189   1.500   0.625   7.207
 2888SOL     OW15190   6.566   2.517   6.473
 2888SOL    HW115191   6.549   2.492   6.568
 2888SOL    HW215192   0.080   2.547   6.464
 2889SOL     OW15193   5.577   4.845   6.565
 2889SOL    HW115194   5.615   4.937   6.552
 2889SOL    HW215195   5.639   4.777   6.528
 2890SOL     OW15196   1.142   4.096   1.570
 2890SOL    HW115197   1.053   4.101   1.616
 2890SOL    HW215198   1.163   4.001   1.548
 2891SOL     OW15199   3.117   3.039   6.822
 2891SOL    HW115200   3.023   3.068   6.840
 2891SOL    HW215201   3.179   3.117   6.828
 2892SOL     OW15202   2.837   3.943   1.134
 2892SOL    HW115203   2.752   3.976   1.094
 2892SOL    HW215204   2.843   3.844   1.123
 2893SOL     OW15205   3.820   4.666   0.581
 2893SOL    HW115206   3.732   4.619   0.578
 2893SOL    HW215207   3.894   4.600   0.571
 2894SOL     OW15208   0.434   5.186   7.235
 2894SOL    HW115209   0.423   5.088   7.254
 2894SOL    HW215210   0.526   5.203   7.202
 2895SOL     OW15211   1.322   5.363   1.458
 2895SOL    HW115212   1.351   5.443   1.510
 2895SOL    HW215213   1.262   5.391   1.384
 2896SOL     OW15214   5.022   4.114   6.308
 2896SOL    HW115215   4.998   4.030   6.356
 2896SOL    HW215216   5.085   4.168   6.364
 2897SOL     OW15217   2.911   2.699   7.000
 2897SOL    HW115218   2.999   2.745   7.004
 2897SOL    HW215219   2.893   2.653   7.088
 2898SOL     OW15220   6.481   0.455   6.819
 2898SOL    HW115221   6.418   0.449   6.896
 2898SOL    HW215222   6.574   0.435   6.850
 2899SOL     OW15223   4.947   0.931   0.251
 2899SOL    HW115224   4.945   0.891   0.159
 2899SOL    HW215225   4.897   1.017   0.250
 2900SOL     OW15226   5.230   2.071   0.672
 2900SOL    HW115227   5.325   2.082   0.644
 2900SOL    HW215228   5.226   2.041   0.767
 2901SOL     OW15229   2.198   0.508   7.283
 2901SOL    HW115230   2.187   0.543   7.191
 2901SOL    HW215231   2.197   0.408   7.282
 2902SOL     OW15232   0.943   4.840   5.038
 2902SOL    HW115233   0.904   4.748   5.028
 2902SOL    HW215234   0.869   4.907   5.037
 2903SOL     OW15235   1.551   1.481   7.176
 2903SOL    HW115236   1.474   1.507   7.235
 2903SOL    HW215237   1.637   1.502   7.223
 2904SOL     OW15238   2.384   0.912   6.005
 2904SOL    HW115239   2.396   0.947   6.098
 2904SOL    HW215240   2.391   0.812   6.006
 2905SOL     OW15241   5.503   1.259   6.121
 2905SOL    HW115242   5.413   1.269   6.077
 2905SOL    HW215243   5.517   1.164   6.148
 2906SOL     OW15244   0.116   3.971   5.891
 2906SOL    HW115245   0.161   3.913   5.823
 2906SOL    HW215246   0.132   3.933   5.982
 2907SOL     OW15247   2.575   0.266   6.955
 2907SOL    HW115248   2.642   0.339   6.942
 2907SOL    HW215249   2.532   0.276   7.045
 2908SOL     OW15250   1.411   3.159   0.322
 2908SOL    HW115251   1.421   3.063   0.349
 2908SOL    HW215252   1.315   3.184   0.325
 2909SOL     OW15253   6.081   1.549   0.420
 2909SOL    HW115254   6.010   1.548   0.350
 2909SOL    HW215255   6.042   1.528   0.509
 2910SOL     OW15256   3.974   4.153   6.157
 2910SOL    HW115257   3.967   4.114   6.065
 2910SOL    HW215258   4.066   4.137   6.193
 2911SOL     OW15259   3.372   2.074   1.663
 2911SOL    HW115260   3.330   2.124   1.588
 2911SOL    HW215261   3.301   2.027   1.716
 2912SOL     OW15262   0.155   0.691   6.987
 2912SOL    HW115263   0.185   0.698   7.082
 2912SOL    HW215264   0.139   0.595   6.965
 2913SOL     OW15265   4.051   3.706   1.477
 2913SOL    HW115266   4.043   3.761   1.560
 2913SOL    HW215267   4.027   3.762   1.398
 2914SOL     OW15268   4.678   6.017   6.170
 2914SOL    HW115269   4.749   6.063   6.223
 2914SOL    HW215270   4.617   6.085   6.130
 2915SOL     OW15271   1.599   4.894   2.026
 2915SOL    HW115272   1.549   4.817   1.984
 2915SOL    HW215273   1.697   4.876   2.023
 2916SOL     OW15274   3.628   1.568   5.780
 2916SOL    HW115275   3.672   1.486   5.742
 2916SOL    HW215276   3.532   1.550   5.797
 2917SOL     OW15277   0.237   0.145   1.307
 2917SOL    HW115278   0.254   0.094   1.392
 2917SOL    HW215279   0.304   0.117   1.238
 2918SOL     OW15280   3.017   2.351   0.694
 2918SOL    HW115281   3.011   2.374   0.597
 2918SOL    HW215282   3.047   2.431   0.745
 2919SOL     OW15283   2.352   0.532   1.391
 2919SOL    HW115284   2.351   0.503   1.486
 2919SOL    HW215285   2.383   0.456   1.333
 2920SOL     OW15286   0.933   5.190   7.262
 2920SOL    HW115287   0.965   5.096   7.271
 2920SOL    HW215288   1.011   5.252   7.267
 2921SOL     OW15289   4.664   4.165   6.565
 2921SOL    HW115290   4.758   4.170   6.599
 2921SOL    HW215291   4.605   4.225   6.620
 2922SOL     OW15292   4.334   2.818   6.683
 2922SOL    HW115293   4.309   2.730   6.724
 2922SOL    HW215294   4.259   2.852   6.627
 2923SOL     OW15295   2.094   3.602   0.216
 2923SOL    HW115296   2.008   3.638   0.180
 2923SOL    HW215297   2.160   3.677   0.224
 2924SOL     OW15298   3.420   1.918   5.505
 2924SOL    HW115299   3.467   1.914   5.417
 2924SOL    HW215300   3.323   1.897   5.491
 2925SOL     OW15301   1.435   4.699   0.776
 2925SOL    HW115302   1.489   4.616   0.794
 2925SOL    HW215303   1.486   4.758   0.714
 2926SOL     OW15304   3.695   6.025   1.306
 2926SOL    HW115305   3.697   6.019   1.406
 2926SOL    HW215306   3.735   5.943   1.266
 2927SOL     OW15307   6.270   4.780   0.055
 2927SOL    HW115308   6.367   4.758   0.048
 2927SOL    HW215309   6.258   4.864   0.106
 2928SOL     OW15310   3.796   4.941   6.241
 2928SOL    HW115311   3.716   4.925   6.183
 2928SOL    HW215312   3.842   4.854   6.259
 2929SOL     OW15313   2.966   3.209   7.111
 2929SOL    HW115314   3.002   3.303   7.114
 2929SOL    HW215315   2.930   3.190   7.020
 2930SOL     OW15316   2.839   5.245   0.387
 2930SOL    HW115317   2.829   5.146   0.373
 2930SOL    HW215318   2.906   5.281   0.323
 2931SOL     OW15319   2.716   0.903   1.632
 2931SOL    HW115320   2.684   0.923   1.539
 2931SOL    HW215321   2.728   0.804   1.641
 2932SOL     OW15322   6.097   5.206   6.213
 2932SOL    HW115323   6.162   5.264   6.261
 2932SOL    HW215324   6.011   5.202   6.264
 2933SOL     OW15325   4.381   2.096   5.853
 2933SOL    HW115326   4.344   2.082   5.945
 2933SOL    HW215327   4.475   2.129   5.859
 2934SOL     OW15328   5.588   2.823   6.866
 2934SOL    HW115329   5.615   2.801   6.960
 2934SOL    HW215330   5.494   2.791   6.851
 2935SOL     OW15331   6.054   0.514   1.218
 2935SOL    HW115332   5.986   0.504   1.290
 2935SOL    HW215333   6.014   0.561   1.139
 2936SOL     OW15334   1.781   3.002   1.868
 2936SOL    HW115335   1.813   2.919   1.914
 2936SOL    HW215336   1.681   3.005   1.872
 2937SOL     OW15337   1.067   1.369   1.406
 2937SOL    HW115338   0.994   1.437   1.403
 2937SOL    HW215339   1.100   1.359   1.500
 2938SOL     OW15340   4.272   1.032   5.167
 2938SOL    HW115341   4.223   1.106   5.213
 2938SOL    HW215342   4.214   0.951   5.163
 2939SOL     OW15343   2.788   6.277   1.180
 2939SOL    HW115344   2.754   6.193   1.222
 2939SOL    HW215345   2.792   6.349   1.249
 2940SOL     OW15346   6.463   4.098   5.972
 2940SOL    HW115347   6.547   4.053   5.941
 2940SOL    HW215348   6.484   4.189   6.007
 2941SOL     OW15349   0.285   4.929   0.660
 2941SOL    HW115350   0.276   4.973   0.750
 2941SOL    HW215351   0.309   4.997   0.591
 2942SOL     OW15352   1.671   5.140   5.406
 2942SOL    HW115353   1.769   5.121   5.409
 2942SOL    HW215354   1.629   5.083   5.335
 2943SOL     OW15355   2.414   1.075   7.205
 2943SOL    HW115356   2.368   0.987   7.190
 2943SOL    HW215357   2.512   1.064   7.192
 2944SOL     OW15358   5.889   1.471   1.470
 2944SOL    HW115359   5.965   1.460   1.536
 2944SOL    HW215360   5.910   1.545   1.407
 2945SOL     OW15361   4.405   0.254   1.883
 2945SOL    HW115362   4.394   0.196   1.964
 2945SOL    HW215363   4.353   0.339   1.895
 2946SOL     OW15364   2.058   6.322   6.439
 2946SOL    HW115365   2.132   6.388   6.429
 2946SOL    HW215366   2.088   6.232   6.408
 2947SOL     OW15367   0.919   6.316   0.563
 2947SOL    HW115368   0.972   6.400   0.549
 2947SOL    HW215369   0.821   6.337   0.559
 2948SOL     OW15370   5.440   5.648   5.944
 2948SOL    HW115371   5.355   5.627   5.992
 2948SOL    HW215372   5.472   5.739   5.971
 2949SOL     OW15373   3.338   6.434   6.216
 2949SOL    HW115374   3.327   6.336   6.231
 2949SOL    HW215375   3.386   6.449   6.129
 2950SOL     OW15376   1.748   2.350   6.110
 2950SOL    HW115377   1.831   2.352   6.054
 2950SOL    HW215378   1.762   2.287   6.187
 2951SOL     OW15379   3.803   4.101   1.730
 2951SOL    HW115380   3.857   4.045   1.793
 2951SOL    HW215381   3.761   4.176   1.780
 2952SOL     OW15382   6.070   5.508   0.920
 2952SOL    HW115383   6.141   5.470   0.861
 2952SOL    HW215384   6.006   5.436   0.946
 2953SOL     OW15385   4.901   3.413   6.794
 2953SOL    HW115386   4.928   3.343   6.728
 2953SOL    HW215387   4.808   3.444   6.773
 2954SOL     OW15388   2.488   3.348   0.375
 2954SOL    HW115389   2.498   3.261   0.326
 2954SOL    HW215390   2.410   3.343   0.436
 2955SOL     OW15391   1.594   5.305   6.573
 2955SOL    HW115392   1.635   5.216   6.551
 2955SOL    HW215393   1.557   5.303   6.665
 2956SOL     OW15394   0.120   5.496   0.851
 2956SOL    HW115395   0.161   5.516   0.940
 2956SOL    HW215396   0.025   5.468   0.864
 2957SOL     OW15397   3.338   3.105   7.203
 2957SOL    HW115398   3.326   3.135   7.298
 2957SOL    HW215399   3.320   3.007   7.197
 2958SOL     OW15400   1.221   0.780   6.509
 2958SOL    HW115401   1.266   0.866   6.485
 2958SOL    HW215402   1.125   0.784   6.481
 2959SOL     OW15403   0.205   4.389   7.188
 2959SOL    HW115404   0.224   4.416   7.094
 2959SOL    HW215405   0.282   4.414   7.247
 2960SOL     OW15406   6.251   6.091   1.015
 2960SOL    HW115407   6.239   6.033   1.096
 2960SOL    HW215408   6.162   6.122   0.983
 2961SOL     OW15409   2.953   3.381   5.961
 2961SOL    HW115410   3.023   3.314   5.936
 2961SOL    HW215411   2.996   3.468   5.985
 2962SOL     OW15412   4.178   1.231   0.120
 2962SOL    HW115413   4.226   1.256   0.037
 2962SOL    HW215414   4.228   1.265   0.200
 2963SOL     OW15415   6.089   1.779   6.423
 2963SOL    HW115416   6.069   1.861   6.368
 2963SOL    HW215417   6.008   1.754   6.476
 2964SOL     OW15418   0.063   0.767   5.636
 2964SOL    HW115419   0.069   0.667   5.625
 2964SOL    HW215420   0.070   0.790   5.733
 2965SOL     OW15421   0.507   0.471   2.228
 2965SOL    HW115422   0.524   0.547   2.290
 2965SOL    HW215423   0.593   0.425   2.207
 2966SOL     OW15424   5.452   6.249   6.872
 2966SOL    HW115425   5.500   6.217   6.791
 2966SOL    HW215426   5.353   6.247   6.856
 2967SOL     OW15427   5.531   5.756   1.175
 2967SOL    HW115428   5.590   5.748   1.255
 2967SOL    HW215429   5.549   5.680   1.112
 2968SOL     OW15430   0.385   3.570   1.329
 2968SOL    HW115431   0.404   3.620   1.413
 2968SOL    HW215432   0.306   3.612   1.283
 2969SOL     OW15433   5.594   1.734   0.944
 2969SOL    HW115434   5.625   1.811   0.890
 2969SOL    HW215435   5.631   1.741   1.037
 2970SOL     OW15436   0.255   0.566   2.127
 2970SOL    HW115437   0.310   0.511   2.189
 2970SOL    HW215438   0.314   0.630   2.078
 2971SOL     OW15439   4.094   4.862   7.038
 2971SOL    HW115440   4.035   4.933   7.076
 2971SOL    HW215441   4.102   4.875   6.939
 2972SOL     OW15442   4.462   1.657   5.895
 2972SOL    HW115443   4.456   1.581   5.830
 2972SOL    HW215444   4.371   1.695   5.911
 2973SOL     OW15445   3.257   1.588   6.202
 2973SOL    HW115446   3.245   1.508   6.261
 2973SOL    HW215447   3.348   1.626   6.216
 2974SOL     OW15448   5.084   0.337   6.598
 2974SOL    HW115449   5.050   0.416   6.548
 2974SOL    HW215450   5.165   0.364   6.651
 2975SOL     OW15451   5.113   2.544   5.568
 2975SOL    HW115452   5.071   2.465   5.524
 2975SOL    HW215453   5.043   2.609   5.596
 2976SOL     OW15454   3.499   1.194   0.426
 2976SOL    HW115455   3.416   1.138   0.435
 2976SOL    HW215456   3.503   1.260   0.501
 2977SOL     OW15457   6.365   3.450   0.573
 2977SOL    HW115458   6.385   3.517   0.645
 2977SOL    HW215459   6.444   3.390   0.561
 2978SOL     OW15460   5.223   0.965   5.991
 2978SOL    HW115461   5.209   0.881   5.939
 2978SOL    HW215462   5.164   0.965   6.072
 2979SOL     OW15463   1.705   3.412   6.964
 2979SOL    HW115464   1.740   3.437   6.874
 2979SOL    HW215465   1.605   3.406   6.961
 2980SOL     OW15466   5.089   4.099   1.402
 2980SOL    HW115467   5.162   4.164   1.381
 2980SOL    HW215468   5.103   4.015   1.351
 2981SOL     OW15469   0.753   0.642   6.122
 2981SOL    HW115470   0.731   0.580   6.047
 2981SOL    HW215471   0.812   0.595   6.188
 2982SOL     OW15472   3.966   0.038   6.015
 2982SOL    HW115473   3.966   6.414   6.022
 2982SOL    HW215474   3.940   0.078   6.103
 2983SOL     OW15475   4.518   5.916   7.412
 2983SOL    HW115476   4.479   5.825   7.403
 2983SOL    HW215477   4.462   5.982   7.362
 2984SOL     OW15478   0.793   3.899   6.856
 2984SOL    HW115479   0.821   3.983   6.810
 2984SOL    HW215480   0.820   3.904   6.952
 2985SOL     OW15481   5.802   5.715   6.658
 2985SOL    HW115482   5.738   5.746   6.588
 2985SOL    HW215483   5.839   5.794   6.707
 2986SOL     OW15484   0.215   0.119   0.867
 2986SOL    HW115485   0.209   0.062   0.785
 2986SOL    HW215486   0.123   0.140   0.900
 2987SOL     OW15487   4.573   5.831   1.376
 2987SOL    HW115488   4.494   5.890   1.394
 2987SOL    HW215489   4.587   5.825   1.277
 2988SOL     OW15490   1.949   6.248   5.580
 2988SOL    HW115491   2.037   6.287   5.608
 2988SOL    HW215492   1.907   6.306   5.511
 2989SOL     OW15493   4.626   5.771   6.076
 2989SOL    HW115494   4.706   5.739   6.026
 2989SOL    HW215495   4.644   5.863   6.111
 2990SOL     OW15496   1.816   5.453   6.478
 2990SOL    HW115497   1.737   5.404   6.516
 2990SOL    HW215498   1.795   5.482   6.384
 2991SOL     OW15499   3.098   3.504   0.218
 2991SOL    HW115500   3.100   3.462   0.127
 2991SOL    HW215501   3.153   3.449   0.281
 2992SOL     OW15502   3.522   0.146   0.388
 2992SOL    HW115503   3.436   0.107   0.421
 2992SOL    HW215504   3.510   0.177   0.293
 2993SOL     OW15505   2.473   3.083   0.241
 2993SOL    HW115506   2.521   3.007   0.286
 2993SOL    HW215507   2.382   3.092   0.281
 2994SOL     OW15508   3.662   4.531   1.694
 2994SOL    HW115509   3.715   4.495   1.771
 2994SOL    HW215510   3.571   4.490   1.695
 2995SOL     OW15511   2.688   3.516   7.143
 2995SOL    HW115512   2.754   3.575   7.095
 2995SOL    HW215513   2.613   3.492   7.081
 2996SOL     OW15514   0.701   2.481   6.528
 2996SOL    HW115515   0.786   2.431   6.512
 2996SOL    HW215516   0.720   2.559   6.587
 2997SOL     OW15517   4.826   0.030   1.500
 2997SOL    HW115518   4.775   0.116   1.501
 2997SOL    HW215519   4.779   6.439   1.442
 2998SOL     OW15520   0.356   3.654   6.187
 2998SOL    HW115521   0.293   3.604   6.245
 2998SOL    HW215522   0.419   3.707   6.244
 2999SOL     OW15523   6.275   5.622   6.426
 2999SOL    HW115524   6.193   5.617   6.483
 2999SOL    HW215525   6.251   5.660   6.337
 3000SOL     OW15526   6.507   3.665   1.145
 3000SOL    HW115527   6.445   3.605   1.096
 3000SOL    HW215528   6.502   3.757   1.106
 3001SOL     OW15529   2.065   4.662   5.710
 3001SOL    HW115530   2.044   4.745   5.658
 3001SOL    HW215531   2.162   4.639   5.697
 3002SOL     OW15532   0.995   3.193   7.157
 3002SOL    HW115533   0.944   3.111   7.129
 3002SOL    HW215534   0.980   3.265   7.090
 3003SOL     OW15535   2.392   3.934   5.417
 3003SOL    HW115536   2.309   3.882   5.396
 3003SOL    HW215537   2.472   3.884   5.385
 3004SOL     OW15538   6.350   6.059   6.429
 3004SOL    HW115539   6.300   6.034   6.512
 3004SOL    HW215540   6.337   6.156   6.410
 3005SOL     OW15541   2.724   3.056   6.641
 3005SOL    HW115542   2.636   3.042   6.687
 3005SOL    HW215543   2.764   2.967   6.618
 3006SOL     OW15544   4.546   0.145   6.717
 3006SOL    HW115545   4.576   0.120   6.809
 3006SOL    HW215546   4.564   0.069   6.655
 3007SOL     OW15547   1.983   6.167   7.065
 3007SOL    HW115548   1.984   6.110   7.147
 3007SOL    HW215549   2.062   6.228   7.066
 3008SOL     OW15550   5.716   0.102   1.163
 3008SOL    HW115551   5.807   0.143   1.174
 3008SOL    HW215552   5.650   0.152   1.219
 3009SOL     OW15553   4.862   1.418   1.973
 3009SOL    HW115554   4.939   1.482   1.962
 3009SOL    HW215555   4.870   1.372   2.061
 3010SOL     OW15556   0.405   5.581   1.656
 3010SOL    HW115557   0.447   5.564   1.746
 3010SOL    HW215558   0.318   5.629   1.669
 3011SOL     OW15559   1.970   0.552   0.026
 3011SOL    HW115560   2.054   0.541   7.387
 3011SOL    HW215561   1.990   0.533   0.122
 3012SOL     OW15562   3.191   4.078   0.438
 3012SOL    HW115563   3.144   4.069   0.350
 3012SOL    HW215564   3.290   4.077   0.423
 3013SOL     OW15565   2.198   6.467   6.151
 3013SOL    HW115566   2.222   6.471   6.248
 3013SOL    HW215567   2.154   0.077   6.124
 3014SOL     OW15568   0.837   5.144   0.928
 3014SOL    HW115569   0.766   5.146   0.998
 3014SOL    HW215570   0.851   5.050   0.897
 3015SOL     OW15571   1.041   6.185   1.287
 3015SOL    HW115572   1.000   6.094   1.293
 3015SOL    HW215573   1.076   6.212   1.377
 3016SOL     OW15574   4.291   2.569   6.791
 3016SOL    HW115575   4.347   2.500   6.745
 3016SOL    HW215576   4.236   2.526   6.862
 3017SOL     OW15577   2.357   3.376   0.807
 3017SOL    HW115578   2.334   3.442   0.878
 3017SOL    HW215579   2.455   3.378   0.790
 3018SOL     OW15580   3.092   2.175   6.788
 3018SOL    HW115581   3.139   2.138   6.868
 3018SOL    HW215582   3.131   2.264   6.765
 3019SOL     OW15583   3.411   2.800   6.345
 3019SOL    HW115584   3.360   2.864   6.289
 3019SOL    HW215585   3.503   2.836   6.361
 3020SOL     OW15586   0.849   5.073   6.274
 3020SOL    HW115587   0.897   5.160   6.287
 3020SOL    HW215588   0.911   4.998   6.297
 3021SOL     OW15589   0.127   5.972   0.404
 3021SOL    HW115590   0.121   5.872   0.405
 3021SOL    HW215591   0.135   6.004   0.310
 3022SOL     OW15592   4.312   0.385   0.778
 3022SOL    HW115593   4.361   0.443   0.843
 3022SOL    HW215594   4.347   0.291   0.783
 3023SOL     OW15595   4.283   1.797   5.460
 3023SOL    HW115596   4.285   1.866   5.388
 3023SOL    HW215597   4.273   1.842   5.549
 3024SOL     OW15598   5.417   0.322   1.605
 3024SOL    HW115599   5.358   0.349   1.681
 3024SOL    HW215600   5.385   0.234   1.568
 3025SOL     OW15601   6.155   3.928   4.814
 3025SOL    HW115602   6.173   4.012   4.865
 3025SOL    HW215603   6.071   3.939   4.761
 3026SOL     OW15604   4.531   2.408   0.366
 3026SOL    HW115605   4.434   2.399   0.389
 3026SOL    HW215606   4.574   2.318   0.364
 3027SOL     OW15607   5.297   5.383   1.504
 3027SOL    HW115608   5.383   5.421   1.537
 3027SOL    HW215609   5.308   5.352   1.410
 3028SOL     OW15610   3.938   0.523   1.320
 3028SOL    HW115611   3.912   0.611   1.279
 3028SOL    HW215612   3.885   0.509   1.403
 3029SOL     OW15613   3.698   2.756   6.188
 3029SOL    HW115614   3.626   2.787   6.126
 3029SOL    HW215615   3.699   2.814   6.270
 3030SOL     OW15616   6.426   5.790   6.073
 3030SOL    HW115617   6.467   5.881   6.067
 3030SOL    HW215618   6.495   5.725   6.106
 3031SOL     OW15619   2.977   3.253   1.042
 3031SOL    HW115620   2.928   3.171   1.072
 3031SOL    HW215621   2.963   3.327   1.108
 3032SOL     OW15622   4.217   3.637   0.271
 3032SOL    HW115623   4.199   3.579   0.192
 3032SOL    HW215624   4.138   3.636   0.332
 3033SOL     OW15625   2.573   2.263   5.978
 3033SOL    HW115626   2.592   2.360   5.963
 3033SOL    HW215627   2.474   2.250   5.983
 3034SOL     OW15628   3.913   0.685   4.913
 3034SOL    HW115629   3.924   0.784   4.899
 3034SOL    HW215630   4.003   0.643   4.923
 3035SOL     OW15631   1.530   3.529   7.327
 3035SOL    HW115632   1.607   3.555   7.269
 3035SOL    HW215633   1.465   3.605   7.331
 3036SOL     OW15634   0.735   4.221   0.113
 3036SOL    HW115635   0.807   4.269   0.163
 3036SOL    HW215636   0.755   4.123   0.112
 3037SOL     OW15637   6.351   3.080   0.830
 3037SOL    HW115638   6.317   2.990   0.858
 3037SOL    HW215639   6.281   3.126   0.774
 3038SOL     OW15640   2.460   5.505   6.984
 3038SOL    HW115641   2.429   5.468   6.896
 3038SOL    HW215642   2.390   5.491   7.053
 3039SOL     OW15643   5.263   1.243   6.000
 3039SOL    HW115644   5.244   1.146   5.986
 3039SOL    HW215645   5.178   1.296   5.988
 3040SOL     OW15646   1.368   3.766   5.756
 3040SOL    HW115647   1.467   3.769   5.745
 3040SOL    HW215648   1.325   3.823   5.686
 3041SOL     OW15649   4.617   1.523   6.082
 3041SOL    HW115650   4.634   1.581   6.162
 3041SOL    HW215651   4.557   1.571   6.018
 3042SOL     OW15652   6.502   3.605   4.730
 3042SOL    HW115653   6.531   3.589   4.635
 3042SOL    HW215654   6.566   3.560   4.792
 3043SOL     OW15655   6.058   0.382   5.716
 3043SOL    HW115656   5.986   0.420   5.775
 3043SOL    HW215657   6.026   0.295   5.678
 3044SOL     OW15658   1.921   4.953   6.113
 3044SOL    HW115659   1.966   4.872   6.076
 3044SOL    HW215660   1.882   5.007   6.038
 3045SOL     OW15661   5.290   4.257   1.302
 3045SOL    HW115662   5.377   4.220   1.332
 3045SOL    HW215663   5.269   4.224   1.210
 3046SOL     OW15664   5.651   0.865   1.384
 3046SOL    HW115665   5.563   0.909   1.365
 3046SOL    HW215666   5.707   0.925   1.441
 3047SOL     OW15667   5.375   0.812   7.013
 3047SOL    HW115668   5.298   0.866   6.979
 3047SOL    HW215669   5.459   0.867   7.007
 3048SOL     OW15670   5.380   5.062   0.894
 3048SOL    HW115671   5.455   5.050   0.828
 3048SOL    HW215672   5.295   5.028   0.854
 3049SOL     OW15673   0.158   3.552   0.114
 3049SOL    HW115674   0.248   3.597   0.116
 3049SOL    HW215675   0.111   3.568   0.200
 3050SOL     OW15676   2.205   0.721   0.448
 3050SOL    HW115677   2.289   0.710   0.393
 3050SOL    HW215678   2.175   0.631   0.480
 3051SOL     OW15679   0.838   1.831   6.016
 3051SOL    HW115680   0.772   1.835   5.941
 3051SOL    HW215681   0.927   1.801   5.981
 3052SOL     OW15682   1.347   0.090   1.083
 3052SOL    HW115683   1.254   0.104   1.119
 3052SOL    HW215684   1.392   0.017   1.135
 3053SOL     OW15685   2.194   4.626   1.118
 3053SOL    HW115686   2.279   4.673   1.139
 3053SOL    HW215687   2.117   4.687   1.137
 3054SOL     OW15688   6.526   4.032   0.240
 3054SOL    HW115689   0.021   4.083   0.279
 3054SOL    HW215690   6.470   3.995   0.314
 3055SOL     OW15691   4.372   1.099   5.454
 3055SOL    HW115692   4.307   1.162   5.412
 3055SOL    HW215693   4.437   1.067   5.385
 3056SOL     OW15694   3.492   5.730   6.471
 3056SOL    HW115695   3.559   5.671   6.515
 3056SOL    HW215696   3.533   5.772   6.390
 3057SOL     OW15697   1.176   5.958   6.804
 3057SOL    HW115698   1.108   5.907   6.858
 3057SOL    HW215699   1.250   5.988   6.864
 3058SOL     OW15700   6.010   4.355   6.059
 3058SOL    HW115701   5.953   4.395   5.987
 3058SOL    HW215702   5.982   4.392   6.148
 3059SOL     OW15703   3.571   4.935   6.075
 3059SOL    HW115704   3.582   4.836   6.063
 3059SOL    HW215705   3.485   4.964   6.034
 3060SOL     OW15706   6.149   3.202   0.662
 3060SOL    HW115707   6.086   3.130   0.631
 3060SOL    HW215708   6.184   3.252   0.583
 3061SOL     OW15709   2.016   6.293   7.377
 3061SOL    HW115710   2.027   6.197   7.350
 3061SOL    HW215711   1.938   6.301   0.025
 3062SOL     OW15712   3.149   1.107   5.780
 3062SOL    HW115713   3.226   1.167   5.799
 3062SOL    HW215714   3.168   1.055   5.696
 3063SOL     OW15715   1.826   5.767   6.787
 3063SOL    HW115716   1.795   5.755   6.881
 3063SOL    HW215717   1.802   5.859   6.755
 3064SOL     OW15718   3.449   4.087   0.337
 3064SOL    HW115719   3.429   4.171   0.286
 3064SOL    HW215720   3.526   4.104   0.399
 3065SOL     OW15721   0.865   5.796   1.913
 3065SOL    HW115722   0.768   5.792   1.889
 3065SOL    HW215723   0.874   5.786   2.012
 3066SOL     OW15724   4.252   2.863   0.398
 3066SOL    HW115725   4.231   2.960   0.383
 3066SOL    HW215726   4.204   2.808   0.331
 3067SOL     OW15727   3.169   6.438   6.878
 3067SOL    HW115728   3.259   6.401   6.852
 3067SOL    HW215729   3.181   0.042   6.938
 3068SOL     OW15730   5.202   0.517   0.428
 3068SOL    HW115731   5.292   0.507   0.386
 3068SOL    HW215732   5.204   0.479   0.520
 3069SOL     OW15733   0.381   2.763   0.586
 3069SOL    HW115734   0.363   2.675   0.542
 3069SOL    HW215735   0.478   2.784   0.580
 3070SOL     OW15736   0.171   3.527   6.352
 3070SOL    HW115737   0.125   3.581   6.423
 3070SOL    HW215738   0.107   3.460   6.314
 3071SOL     OW15739   6.232   2.796   1.182
 3071SOL    HW115740   6.220   2.825   1.087
 3071SOL    HW215741   6.305   2.728   1.187
 3072SOL     OW15742   2.101   4.590   7.129
 3072SOL    HW115743   2.161   4.641   7.068
 3072SOL    HW215744   2.070   4.649   7.203
 3073SOL     OW15745   2.490   4.855   7.393
 3073SOL    HW115746   2.507   4.758   7.410
 3073SOL    HW215747   2.516   4.908   0.060
 3074SOL     OW15748   6.284   6.400   5.392
 3074SOL    HW115749   6.231   6.327   5.349
 3074SOL    HW215750   6.336   6.449   5.323
 3075SOL     OW15751   2.848   2.579   6.762
 3075SOL    HW115752   2.925   2.553   6.704
 3075SOL    HW215753   2.882   2.615   6.849
 3076SOL     OW15754   1.427   2.179   7.357
 3076SOL    HW115755   1.435   2.114   0.017
 3076SOL    HW215756   1.511   2.180   7.303
 3077SOL     OW15757   5.151   4.494   0.290
 3077SOL    HW115758   5.174   4.539   0.376
 3077SOL    HW215759   5.141   4.563   0.218
 3078SOL     OW15760   4.624   0.373   1.267
 3078SOL    HW115761   4.678   0.331   1.340
 3078SOL    HW215762   4.527   0.372   1.291
 3079SOL     OW15763   4.918   1.463   7.006
 3079SOL    HW115764   4.900   1.562   7.010
 3079SOL    HW215765   5.008   1.447   6.965
 3080SOL     OW15766   2.604   5.247   6.675
 3080SOL    HW115767   2.667   5.323   6.663
 3080SOL    HW215768   2.615   5.207   6.766
 3081SOL     OW15769   1.771   6.320   6.980
 3081SOL    HW115770   1.836   6.252   7.015
 3081SOL    HW215771   1.749   6.300   6.885
 3082SOL     OW15772   2.780   1.093   0.887
 3082SOL    HW115773   2.819   1.011   0.929
 3082SOL    HW215774   2.683   1.076   0.867
 3083SOL     OW15775   0.059   5.278   6.939
 3083SOL    HW115776   0.153   5.311   6.936
 3083SOL    HW215777   0.052   5.202   7.003
 3084SOL     OW15778   1.717   1.024   6.356
 3084SOL    HW115779   1.684   1.109   6.396
 3084SOL    HW215780   1.744   0.961   6.429
 3085SOL     OW15781   6.343   0.913   5.976
 3085SOL    HW115782   6.374   0.821   5.950
 3085SOL    HW215783   6.416   0.960   6.025
 3086SOL     OW15784   5.315   3.200   0.278
 3086SOL    HW115785   5.391   3.150   0.321
 3086SOL    HW215786   5.305   3.289   0.321
 3087SOL     OW15787   2.584   2.619   6.863
 3087SOL    HW115788   2.567   2.595   6.959
 3087SOL    HW215789   2.677   2.592   6.838
 3088SOL     OW15790   6.445   5.298   5.303
 3088SOL    HW115791   6.354   5.257   5.297
 3088SOL    HW215792   6.486   5.304   5.212
 3089SOL     OW15793   3.974   3.382   0.585
 3089SOL    HW115794   4.044   3.316   0.609
 3089SOL    HW215795   3.912   3.396   0.662
 3090SOL     OW15796   0.024   3.104   0.674
 3090SOL    HW115797   0.070   3.016   0.687
 3090SOL    HW215798   6.520   3.104   0.725
 3091SOL     OW15799   2.503   3.763   6.513
 3091SOL    HW115800   2.549   3.678   6.537
 3091SOL    HW215801   2.571   3.832   6.488
 3092SOL     OW15802   5.216   5.049   7.124
 3092SOL    HW115803   5.296   5.042   7.184
 3092SOL    HW215804   5.135   5.066   7.179
 3093SOL     OW15805   0.251   3.794   5.738
 3093SOL    HW115806   0.311   3.748   5.803
 3093SOL    HW215807   0.277   3.769   5.644
 3094SOL     OW15808   6.351   3.125   5.032
 3094SOL    HW115809   6.444   3.115   5.068
 3094SOL    HW215810   6.303   3.038   5.040
 3095SOL     OW15811   2.541   4.102   1.665
 3095SOL    HW115812   2.615   4.158   1.701
 3095SOL    HW215813   2.579   4.034   1.601
 3096SOL     OW15814   5.294   5.025   1.305
 3096SOL    HW115815   5.236   4.970   1.245
 3096SOL    HW215816   5.356   4.965   1.356
 3097SOL     OW15817   0.950   5.356   6.075
 3097SOL    HW115818   0.986   5.333   6.166
 3097SOL    HW215819   0.911   5.448   6.077
 3098SOL     OW15820   4.087   2.463   0.225
 3098SOL    HW115821   3.997   2.421   0.240
 3098SOL    HW215822   4.078   2.562   0.220
 3099SOL     OW15823   5.997   5.779   6.344
 3099SOL    HW115824   6.067   5.767   6.273
 3099SOL    HW215825   6.003   5.873   6.380
 3100SOL     OW15826   1.013   2.949   6.400
 3100SOL    HW115827   0.935   2.939   6.338
 3100SOL    HW215828   1.022   2.865   6.455
 3101SOL     OW15829   4.642   6.101   1.950
 3101SOL    HW115830   4.583   6.095   2.031
 3101SOL    HW215831   4.630   6.018   1.894
 3102SOL     OW15832   2.417   1.138   6.633
 3102SOL    HW115833   2.494   1.099   6.683
 3102SOL    HW215834   2.385   1.221   6.679
 3103SOL     OW15835   0.928   1.632   6.549
 3103SOL    HW115836   0.981   1.614   6.632
 3103SOL    HW215837   0.836   1.595   6.560
 3104SOL     OW15838   4.786   0.041   6.130
 3104SOL    HW115839   4.773   0.084   6.219
 3104SOL    HW215840   4.730   0.088   6.061
 3105SOL     OW15841   0.496   5.707   0.819
 3105SOL    HW115842   0.472   5.789   0.872
 3105SOL    HW215843   0.483   5.626   0.875
 3106SOL     OW15844   0.424   5.912   0.989
 3106SOL    HW115845   0.392   5.894   1.082
 3106SOL    HW215846   0.501   5.975   0.992
 3107SOL     OW15847   4.091   0.410   6.740
 3107SOL    HW115848   4.152   0.357   6.799
 3107SOL    HW215849   4.135   0.495   6.713
 3108SOL     OW15850   4.925   1.137   7.142
 3108SOL    HW115851   5.019   1.161   7.118
 3108SOL    HW215852   4.863   1.169   7.069
 3109SOL     OW15853   5.377   4.515   1.050
 3109SOL    HW115854   5.362   4.567   1.134
 3109SOL    HW215855   5.298   4.525   0.990
 3110SOL     OW15856   2.781   4.518   0.492
 3110SOL    HW115857   2.869   4.554   0.460
 3110SOL    HW215858   2.796   4.431   0.539
 3111SOL     OW15859   5.618   3.092   1.542
 3111SOL    HW115860   5.657   3.017   1.596
 3111SOL    HW215861   5.523   3.071   1.520
 3112SOL     OW15862   1.124   6.114   0.290
 3112SOL    HW115863   1.165   6.172   0.360
 3112SOL    HW215864   1.025   6.129   0.289
 3113SOL     OW15865   1.845   5.224   7.364
 3113SOL    HW115866   1.890   5.215   0.039
 3113SOL    HW215867   1.853   5.318   7.332
 3114SOL     OW15868   6.267   5.787   7.023
 3114SOL    HW115869   6.302   5.768   6.932
 3114SOL    HW215870   6.234   5.702   7.064
 3115SOL     OW15871   0.266   1.879   6.833
 3115SOL    HW115872   0.312   1.891   6.921
 3115SOL    HW215873   0.276   1.785   6.802
 3116SOL     OW15874   6.090   6.355   1.186
 3116SOL    HW115875   6.123   6.425   1.249
 3116SOL    HW215876   6.104   6.386   1.092
 3117SOL     OW15877   5.673   2.789   7.123
 3117SOL    HW115878   5.626   2.773   7.210
 3117SOL    HW215879   5.732   2.870   7.131
 3118SOL     OW15880   4.135   1.180   6.021
 3118SOL    HW115881   4.167   1.098   6.069
 3118SOL    HW215882   4.093   1.243   6.087
 3119SOL     OW15883   3.927   4.303   1.283
 3119SOL    HW115884   3.870   4.358   1.222
 3119SOL    HW215885   4.005   4.268   1.232
 3120SOL     OW15886   1.821   2.419   1.606
 3120SOL    HW115887   1.782   2.376   1.525
 3120SOL    HW215888   1.889   2.359   1.646
 3121SOL     OW15889   1.929   5.712   0.469
 3121SOL    HW115890   2.017   5.669   0.447
 3121SOL    HW215891   1.900   5.769   0.391
 3122SOL     OW15892   2.410   5.989   6.565
 3122SOL    HW115893   2.417   5.933   6.482
 3122SOL    HW215894   2.394   5.930   6.644
 3123SOL     OW15895   6.407   2.968   5.575
 3123SOL    HW115896   6.337   2.904   5.607
 3123SOL    HW215897   6.407   2.970   5.475
 3124SOL     OW15898   5.962   2.292   0.824
 3124SOL    HW115899   6.012   2.212   0.791
 3124SOL    HW215900   6.021   2.346   0.884
 3125SOL     OW15901   0.811   3.309   6.467
 3125SOL    HW115902   0.897   3.270   6.499
 3125SOL    HW215903   0.791   3.276   6.375
 3126SOL     OW15904   0.258   2.571   0.175
 3126SOL    HW115905   0.253   2.669   0.156
 3126SOL    HW215906   0.278   2.556   0.272
 3127SOL     OW15907   2.862   3.118   6.874
 3127SOL    HW115908   2.819   3.127   6.784
 3127SOL    HW215909   2.813   3.048   6.927
 3128SOL     OW15910   2.446   0.259   7.196
 3128SOL    HW115911   2.487   0.200   7.266
 3128SOL    HW215912   2.346   0.261   7.208
 3129SOL     OW15913   4.171   4.239   0.602
 3129SOL    HW115914   4.081   4.208   0.633
 3129SOL    HW215915   4.191   4.201   0.512
 3130SOL     OW15916   5.169   0.977   6.897
 3130SOL    HW115917   5.174   1.054   6.962
 3130SOL    HW215918   5.140   1.011   6.808
 3131SOL     OW15919   5.744   1.221   5.991
 3131SOL    HW115920   5.724   1.248   5.897
 3131SOL    HW215921   5.662   1.228   6.046
 3132SOL     OW15922   5.080   5.911   6.401
 3132SOL    HW115923   5.158   5.969   6.378
 3132SOL    HW215924   5.019   5.961   6.462
 3133SOL     OW15925   4.216   6.366   6.157
 3133SOL    HW115926   4.301   6.397   6.116
 3133SOL    HW215927   4.170   6.303   6.094
 3134SOL     OW15928   6.452   4.372   6.856
 3134SOL    HW115929   6.409   4.347   6.943
 3134SOL    HW215930   6.428   4.304   6.786
 3135SOL     OW15931   6.461   3.228   7.182
 3135SOL    HW115932   6.402   3.157   7.145
 3135SOL    HW215933   6.480   3.209   7.278
 3136SOL     OW15934   3.285   0.566   1.345
 3136SOL    HW115935   3.303   0.574   1.443
 3136SOL    HW215936   3.371   0.555   1.295
 3137SOL     OW15937   4.028   2.149   7.252
 3137SOL    HW115938   4.013   2.081   7.180
 3137SOL    HW215939   4.118   2.191   7.241
 3138SOL     OW15940   3.366   0.692   6.508
 3138SOL    HW115941   3.328   0.613   6.459
 3138SOL    HW215942   3.309   0.772   6.490
 3139SOL     OW15943   3.976   5.116   0.339
 3139SOL    HW115944   3.978   5.175   0.420
 3139SOL    HW215945   3.944   5.025   0.366
 3140SOL     OW15946   3.442   5.378   0.982
 3140SOL    HW115947   3.415   5.462   0.934
 3140SOL    HW215948   3.464   5.400   1.077
 3141SOL     OW15949   2.131   3.221   5.931
 3141SOL    HW115950   2.149   3.167   5.848
 3141SOL    HW215951   2.070   3.297   5.908
 3142SOL     OW15952   2.256   6.003   0.040
 3142SOL    HW115953   2.168   6.005   7.408
 3142SOL    HW215954   2.250   6.058   0.123
 3143SOL     OW15955   1.046   2.737   7.094
 3143SOL    HW115956   0.994   2.822   7.084
 3143SOL    HW215957   0.995   2.662   7.053
 3144SOL     OW15958   1.257   5.293   5.494
 3144SOL    HW115959   1.356   5.302   5.507
 3144SOL    HW215960   1.225   5.368   5.437
 3145SOL     OW15961   5.065   1.464   0.316
 3145SOL    HW115962   4.997   1.446   0.386
 3145SOL    HW215963   5.035   1.424   0.229
 3146SOL     OW15964   2.981   3.656   6.356
 3146SOL    HW115965   2.961   3.640   6.453
 3146SOL    HW215966   3.050   3.590   6.325
 3147SOL     OW15967   3.726   1.034   6.074
 3147SOL    HW115968   3.794   1.039   6.001
 3147SOL    HW215969   3.715   1.125   6.116
 3148SOL     OW15970   4.601   5.161   1.086
 3148SOL    HW115971   4.645   5.251   1.089
 3148SOL    HW215972   4.616   5.120   0.996
 3149SOL     OW15973   0.909   2.535   0.889
 3149SOL    HW115974   0.880   2.515   0.982
 3149SOL    HW215975   0.939   2.451   0.844
 3150SOL     OW15976   2.054   2.990   1.258
 3150SOL    HW115977   2.103   3.047   1.324
 3150SOL    HW215978   1.958   2.985   1.284
 3151SOL     OW15979   1.914   1.841   6.395
 3151SOL    HW115980   1.939   1.912   6.329
 3151SOL    HW215981   1.979   1.766   6.389
 3152SOL     OW15982   3.163   5.511   0.673
 3152SOL    HW115983   3.158   5.412   0.659
 3152SOL    HW215984   3.096   5.556   0.615
 3153SOL     OW15985   4.935   0.236   0.483
 3153SOL    HW115986   4.920   0.164   0.550
 3153SOL    HW215987   4.950   0.323   0.529
 3154SOL     OW15988   0.245   2.842   0.129
 3154SOL    HW115989   0.309   2.884   0.064
 3154SOL    HW215990   0.264   2.875   0.221
 3155SOL     OW15991   3.984   1.643   0.525
 3155SOL    HW115992   4.047   1.605   0.592
 3155SOL    HW215993   3.890   1.622   0.552
 3156SOL     OW15994   3.649   2.935   6.394
 3156SOL    HW115995   3.622   2.947   6.489
 3156SOL    HW215996   3.671   3.024   6.354
 3157SOL     OW15997   4.255   1.908   5.704
 3157SOL    HW115998   4.298   1.986   5.749
 3157SOL    HW215999   4.229   1.840   5.772
 3158SOL     OW16000   5.242   1.503   7.318
 3158SOL    HW116001   5.283   1.421   7.280
 3158SOL    HW216002   5.254   1.505   0.003
 3159SOL     OW16003   0.267   0.576   6.007
 3159SOL    HW116004   0.180   0.556   5.961
 3159SOL    HW216005   0.258   0.559   6.105
 3160SOL     OW16006   3.261   3.725   7.263
 3160SOL    HW116007   3.290   3.699   7.355
 3160SOL    HW216008   3.179   3.783   7.268
 3161SOL     OW16009   2.646   3.382   6.361
 3161SOL    HW116010   2.633   3.437   6.279
 3161SOL    HW216011   2.557   3.350   6.395
 3162SOL     OW16012   0.931   2.309   6.001
 3162SOL    HW116013   1.031   2.312   5.997
 3162SOL    HW216014   0.902   2.228   6.052
 3163SOL     OW16015   1.748   4.885   0.824
 3163SOL    HW116016   1.681   4.880   0.749
 3163SOL    HW216017   1.805   4.803   0.822
 3164SOL     OW16018   6.412   2.925   6.067
 3164SOL    HW116019   6.418   2.922   6.167
 3164SOL    HW216020   6.316   2.923   6.039
 3165SOL     OW16021   3.423   4.000   7.113
 3165SOL    HW116022   3.463   3.911   7.136
 3165SOL    HW216023   3.374   3.994   7.027
 3166SOL     OW16024   0.271   6.152   5.684
 3166SOL    HW116025   0.369   6.137   5.671
 3166SOL    HW216026   0.220   6.090   5.625
 3167SOL     OW16027   4.234   5.858   0.884
 3167SOL    HW116028   4.162   5.924   0.861
 3167SOL    HW216029   4.211   5.769   0.844
 3168SOL     OW16030   6.434   1.749   1.095
 3168SOL    HW116031   6.370   1.822   1.121
 3168SOL    HW216032   6.524   1.769   1.133
 3169SOL     OW16033   0.870   0.853   7.022
 3169SOL    HW116034   0.962   0.846   7.062
 3169SOL    HW216035   0.802   0.820   7.087
 3170SOL     OW16036   3.189   3.928   6.404
 3170SOL    HW116037   3.216   3.831   6.411
 3170SOL    HW216038   3.252   3.975   6.342
 3171SOL     OW16039   0.060   1.033   0.990
 3171SOL    HW116040   6.544   1.050   1.003
 3171SOL    HW216041   0.100   1.107   0.936
 3172SOL     OW16042   3.562   2.877   1.164
 3172SOL    HW116043   3.467   2.893   1.189
 3172SOL    HW216044   3.592   2.948   1.100
 3173SOL     OW16045   6.477   4.066   7.246
 3173SOL    HW116046   6.573   4.082   7.226
 3173SOL    HW216047   6.450   4.121   7.325
 3174SOL     OW16048   2.291   3.947   0.484
 3174SOL    HW116049   2.225   3.886   0.528
 3174SOL    HW216050   2.377   3.946   0.535
 3175SOL     OW16051   6.550   6.031   6.052
 3175SOL    HW116052   0.033   6.062   6.122
 3175SOL    HW216053   6.514   6.110   6.002
 3176SOL     OW16054   5.370   0.654   6.299
 3176SOL    HW116055   5.281   0.631   6.260
 3176SOL    HW216056   5.372   0.630   6.396
 3177SOL     OW16057   3.758   3.884   0.066
 3177SOL    HW116058   3.801   3.905   0.154
 3177SOL    HW216059   3.791   3.949   7.412
 3178SOL     OW16060   5.438   3.186   6.605
 3178SOL    HW116061   5.533   3.196   6.634
 3178SOL    HW216062   5.426   3.228   6.515
 3179SOL     OW16063   2.969   4.163   6.266
 3179SOL    HW116064   3.062   4.188   6.294
 3179SOL    HW216065   2.961   4.064   6.260
 3180SOL     OW16066   2.804   1.324   0.532
 3180SOL    HW116067   2.830   1.289   0.442
 3180SOL    HW216068   2.732   1.393   0.522
 3181SOL     OW16069   1.280   5.919   0.745
 3181SOL    HW116070   1.284   6.018   0.729
 3181SOL    HW216071   1.225   5.900   0.826
 3182SOL     OW16072   5.622   5.251   1.021
 3182SOL    HW116073   5.526   5.269   1.001
 3182SOL    HW216074   5.629   5.197   1.105
 3183SOL     OW16075   5.209   4.608   0.536
 3183SOL    HW116076   5.297   4.637   0.574
 3183SOL    HW216077   5.136   4.666   0.573
 3184SOL     OW16078   1.011   0.634   6.802
 3184SOL    HW116079   0.916   0.603   6.799
 3184SOL    HW216080   1.014   0.734   6.798
 3185SOL     OW16081   6.441   0.348   6.298
 3185SOL    HW116082   6.420   0.370   6.393
 3185SOL    HW216083   6.537   0.320   6.291
 3186SOL     OW16084   4.244   4.581   6.045
 3186SOL    HW116085   4.323   4.529   6.076
 3186SOL    HW216086   4.274   4.672   6.015
 3187SOL     OW16087   4.219   1.937   1.143
 3187SOL    HW116088   4.260   1.864   1.197
 3187SOL    HW216089   4.147   1.900   1.085
 3188SOL     OW16090   6.490   5.599   7.280
 3188SOL    HW116091   6.572   5.584   7.335
 3188SOL    HW216092   6.502   5.555   7.191
 3189SOL     OW16093   2.008   2.527   0.270
 3189SOL    HW116094   2.032   2.542   0.366
 3189SOL    HW216095   1.909   2.518   0.261
 3190SOL     OW16096   5.686   6.453   7.124
 3190SOL    HW116097   5.748   6.405   7.062
 3190SOL    HW216098   5.604   0.007   7.074
 3191SOL     OW16099   6.171   4.843   0.405
 3191SOL    HW116100   6.092   4.784   0.389
 3191SOL    HW216101   6.255   4.788   0.397
 3192SOL     OW16102   3.053   4.542   0.412
 3192SOL    HW116103   3.072   4.465   0.472
 3192SOL    HW216104   3.090   4.524   0.321
 3193SOL     OW16105   4.744   2.523   1.702
 3193SOL    HW116106   4.843   2.510   1.702
 3193SOL    HW216107   4.703   2.467   1.773
 3194SOL     OW16108   2.690   0.786   6.300
 3194SOL    HW116109   2.674   0.790   6.399
 3194SOL    HW216110   2.757   0.856   6.275
 3195SOL     OW16111   3.398   1.172   7.203
 3195SOL    HW116112   3.373   1.119   7.122
 3195SOL    HW216113   3.454   1.115   7.264
 3196SOL     OW16114   1.962   1.366   7.187
 3196SOL    HW116115   1.899   1.431   7.229
 3196SOL    HW216116   2.007   1.313   7.259
 3197SOL     OW16117   3.719   1.590   0.604
 3197SOL    HW116118   3.718   1.524   0.529
 3197SOL    HW216119   3.643   1.571   0.666
 3198SOL     OW16120   4.464   5.022   1.496
 3198SOL    HW116121   4.382   5.075   1.476
 3198SOL    HW216122   4.440   4.927   1.513
 3199SOL     OW16123   1.017   4.025   0.622
 3199SOL    HW116124   1.067   4.058   0.703
 3199SOL    HW216125   1.000   4.102   0.560
 3200SOL     OW16126   5.309   0.619   7.199
 3200SOL    HW116127   5.258   0.655   7.277
 3200SOL    HW216128   5.345   0.695   7.144
 3201SOL     OW16129   3.962   0.647   5.321
 3201SOL    HW116130   4.017   0.565   5.306
 3201SOL    HW216131   3.888   0.627   5.385
 3202SOL     OW16132   5.339   2.790   6.159
 3202SOL    HW116133   5.272   2.774   6.087
 3202SOL    HW216134   5.410   2.720   6.156
 3203SOL     OW16135   4.531   5.707   6.330
 3203SOL    HW116136   4.572   5.729   6.242
 3203SOL    HW216137   4.431   5.709   6.323
 3204SOL     OW16138   5.023   2.093   7.156
 3204SOL    HW116139   4.986   2.184   7.172
 3204SOL    HW216140   5.078   2.093   7.072
 3205SOL     OW16141   0.626   5.306   6.575
 3205SOL    HW116142   0.560   5.295   6.501
 3205SOL    HW216143   0.649   5.216   6.613
 3206SOL     OW16144   5.108   4.114   6.999
 3206SOL    HW116145   5.095   4.087   7.095
 3206SOL    HW216146   5.061   4.049   6.939
 3207SOL     OW16147   5.507   5.403   7.216
 3207SOL    HW116148   5.582   5.443   7.268
 3207SOL    HW216149   5.543   5.354   7.136
 3208SOL     OW16150   0.106   5.086   6.558
 3208SOL    HW116151   0.047   5.064   6.480
 3208SOL    HW216152   0.202   5.077   6.531
 3209SOL     OW16153   4.449   5.822   0.406
 3209SOL    HW116154   4.432   5.915   0.371
 3209SOL    HW216155   4.547   5.807   0.413
 3210SOL     OW16156   3.545   0.243   1.292
 3210SOL    HW116157   3.491   0.160   1.306
 3210SOL    HW216158   3.629   0.237   1.346
 3211SOL     OW16159   0.841   1.009   0.724
 3211SOL    HW116160   0.920   1.055   0.683
 3211SOL    HW216161   0.815   1.057   0.808
 3212SOL     OW16162   2.961   1.283   5.674
 3212SOL    HW116163   3.025   1.221   5.720
 3212SOL    HW216164   2.923   1.347   5.740
 3213SOL     OW16165   2.509   1.061   0.823
 3213SOL    HW116166   2.545   1.051   0.730
 3213SOL    HW216167   2.412   1.041   0.824
 3214SOL     OW16168   1.808   5.271   0.593
 3214SOL    HW116169   1.774   5.218   0.515
 3214SOL    HW216170   1.779   5.366   0.583
 3215SOL     OW16171   3.207   1.267   7.385
 3215SOL    HW116172   3.198   1.367   7.389
 3215SOL    HW216173   3.286   1.244   7.327
 3216SOL     OW16174   2.638   6.275   5.650
 3216SOL    HW116175   2.547   6.240   5.630
 3216SOL    HW216176   2.707   6.214   5.611
 3217SOL     OW16177   0.003   3.164   5.667
 3217SOL    HW116178   6.524   3.091   5.635
 3217SOL    HW216179   6.564   3.249   5.619
 3218SOL     OW16180   3.637   0.444   6.447
 3218SOL    HW116181   3.632   0.544   6.452
 3218SOL    HW216182   3.714   0.412   6.501
 3219SOL     OW16183   2.082   0.124   1.341
 3219SOL    HW116184   2.143   0.186   1.390
 3219SOL    HW216185   2.033   0.067   1.407
 3220SOL     OW16186   0.591   0.095   0.699
 3220SOL    HW116187   0.669   0.157   0.694
 3220SOL    HW216188   0.507   0.147   0.716
 3221SOL     OW16189   1.854   3.087   1.027
 3221SOL    HW116190   1.818   3.076   0.934
 3221SOL    HW216191   1.952   3.065   1.027
 3222SOL     OW16192   4.255   4.129   0.339
 3222SOL    HW116193   4.283   4.034   0.332
 3222SOL    HW216194   4.324   4.188   0.296
 3223SOL     OW16195   2.505   5.898   1.410
 3223SOL    HW116196   2.414   5.879   1.449
 3223SOL    HW216197   2.575   5.862   1.472
 3224SOL     OW16198   2.213   3.993   0.877
 3224SOL    HW116199   2.238   3.902   0.842
 3224SOL    HW216200   2.146   4.035   0.815
 3225SOL     OW16201   4.842   5.989   1.680
 3225SOL    HW116202   4.747   5.962   1.695
 3225SOL    HW216203   4.892   5.982   1.767
 3226SOL     OW16204   3.498   3.776   6.774
 3226SOL    HW116205   3.576   3.793   6.835
 3226SOL    HW216206   3.476   3.679   6.775
 3227SOL     OW16207   1.733   2.650   6.369
 3227SOL    HW116208   1.812   2.601   6.406
 3227SOL    HW216209   1.748   2.669   6.273
 3228SOL     OW16210   5.442   0.481   0.299
 3228SOL    HW116211   5.498   0.498   0.380
 3228SOL    HW216212   5.485   0.524   0.220
 3229SOL     OW16213   6.493   1.696   0.832
 3229SOL    HW116214   6.464   1.713   0.926
 3229SOL    HW216215   6.476   1.601   0.808
 3230SOL     OW16216   2.793   2.548   1.272
 3230SOL    HW116217   2.799   2.513   1.179
 3230SOL    HW216218   2.729   2.491   1.325
 3231SOL     OW16219   2.189   1.911   6.768
 3231SOL    HW116220   2.137   1.960   6.838
 3231SOL    HW216221   2.197   1.815   6.794
 3232SOL     OW16222   2.297   0.676   6.367
 3232SOL    HW116223   2.333   0.761   6.405
 3232SOL    HW216224   2.205   0.659   6.403
 3233SOL     OW16225   0.274   2.298   5.786
 3233SOL    HW116226   0.311   2.231   5.722
 3233SOL    HW216227   0.191   2.262   5.828
 3234SOL     OW16228   3.748   1.343   5.692
 3234SOL    HW116229   3.837   1.299   5.685
 3234SOL    HW216230   3.676   1.274   5.678
 3235SOL     OW16231   5.010   5.323   6.793
 3235SOL    HW116232   5.002   5.401   6.731
 3235SOL    HW216233   4.946   5.252   6.765
 3236SOL     OW16234   5.536   3.537   1.635
 3236SOL    HW116235   5.445   3.513   1.666
 3236SOL    HW216236   5.576   3.605   1.696
 3237SOL     OW16237   4.124   1.545   7.309
 3237SOL    HW116238   4.133   1.485   7.230
 3237SOL    HW216239   4.043   1.518   7.361
 3238SOL     OW16240   0.182   0.834   5.398
 3238SOL    HW116241   0.135   0.819   5.485
 3238SOL    HW216242   0.126   0.893   5.339
 3239SOL     OW16243   0.369   0.862   6.945
 3239SOL    HW116244   0.335   0.956   6.946
 3239SOL    HW216245   0.293   0.798   6.949
 3240SOL     OW16246   2.803   2.426   1.029
 3240SOL    HW116247   2.899   2.416   1.004
 3240SOL    HW216248   2.748   2.436   0.947
 3241SOL     OW16249   6.075   2.200   5.606
 3241SOL    HW116250   6.048   2.169   5.514
 3241SOL    HW216251   6.174   2.210   5.609
 3242SOL     OW16252   3.273   6.407   0.075
 3242SOL    HW116253   3.240   0.018   0.115
 3242SOL    HW216254   3.358   6.380   0.120
 3243SOL     OW16255   0.641   6.424   1.271
 3243SOL    HW116256   0.730   6.404   1.230
 3243SOL    HW216257   0.654   6.442   1.369
 3244SOL     OW16258   6.488   1.547   1.681
 3244SOL    HW116259   6.566   1.498   1.720
 3244SOL    HW216260   6.445   1.603   1.752
 3245SOL     OW16261   5.006   4.111   5.781
 3245SOL    HW116262   5.021   4.201   5.740
 3245SOL    HW216263   4.917   4.110   5.828
 3246SOL     OW16264   1.534   0.929   5.716
 3246SOL    HW116265   1.626   0.965   5.728
 3246SOL    HW216266   1.509   0.934   5.619
 3247SOL     OW16267   1.007   4.545   6.595
 3247SOL    HW116268   0.923   4.590   6.564
 3247SOL    HW216269   0.998   4.446   6.585
 3248SOL     OW16270   4.786   4.075   7.245
 3248SOL    HW116271   4.743   4.077   7.155
 3248SOL    HW216272   4.885   4.076   7.235
 3249SOL     OW16273   5.803   3.684   6.254
 3249SOL    HW116274   5.877   3.664   6.317
 3249SOL    HW216275   5.811   3.626   6.173
 3250SOL     OW16276   2.924   1.309   7.060
 3250SOL    HW116277   2.964   1.343   6.975
 3250SOL    HW216278   2.835   1.351   7.074
 3251SOL     OW16279   3.221   3.215   0.900
 3251SOL    HW116280   3.134   3.230   0.948
 3251SOL    HW216281   3.248   3.119   0.911
 3252SOL     OW16282   5.780   4.216   6.232
 3252SOL    HW116283   5.812   4.123   6.248
 3252SOL    HW216284   5.847   4.281   6.266
 3253SOL     OW16285   3.571   6.014   6.864
 3253SOL    HW116286   3.633   6.021   6.785
 3253SOL    HW216287   3.534   5.922   6.870
 3254SOL     OW16288   2.738   5.666   5.956
 3254SOL    HW116289   2.761   5.615   5.873
 3254SOL    HW216290   2.681   5.608   6.015
 3255SOL     OW16291   1.994   5.610   6.617
 3255SOL    HW116292   1.948   5.662   6.690
 3255SOL    HW216293   1.930   5.545   6.577
 3256SOL     OW16294   2.622   2.865   0.357
 3256SOL    HW116295   2.595   2.844   0.451
 3256SOL    HW216296   2.718   2.891   0.355
 3257SOL     OW16297   5.065   4.054   7.258
 3257SOL    HW116298   5.128   4.113   7.309
 3257SOL    HW216299   5.095   3.959   7.267
 3258SOL     OW16300   0.801   5.600   0.873
 3258SOL    HW116301   0.767   5.673   0.815
 3258SOL    HW216302   0.753   5.603   0.961
 3259SOL     OW16303   2.409   1.572   5.875
 3259SOL    HW116304   2.385   1.645   5.938
 3259SOL    HW216305   2.438   1.611   5.788
 3260SOL     OW16306   4.162   5.621   0.770
 3260SOL    HW116307   4.178   5.555   0.843
 3260SOL    HW216308   4.089   5.586   0.710
 3261SOL     OW16309   0.441   2.774   6.388
 3261SOL    HW116310   0.515   2.808   6.446
 3261SOL    HW216311   0.423   2.840   6.315
 3262SOL     OW16312   0.950   3.348   0.706
 3262SOL    HW116313   0.934   3.259   0.662
 3262SOL    HW216314   0.898   3.352   0.791
 3263SOL     OW16315   4.898   0.901   6.637
 3263SOL    HW116316   4.904   0.853   6.724
 3263SOL    HW216317   4.977   0.961   6.625
 3264SOL     OW16318   3.043   5.383   7.258
 3264SOL    HW116319   3.114   5.346   7.198
 3264SOL    HW216320   2.994   5.307   7.302
 3265SOL     OW16321   2.242   0.265   1.503
 3265SOL    HW116322   2.272   0.338   1.564
 3265SOL    HW216323   2.239   0.179   1.553
 3266SOL     OW16324   1.218   2.348   6.013
 3266SOL    HW116325   1.294   2.283   6.017
 3266SOL    HW216326   1.245   2.427   5.958
 3267SOL     OW16327   2.890   0.789   0.037
 3267SOL    HW116328   2.968   0.766   0.096
 3267SOL    HW216329   2.886   0.726   7.375
 3268SOL     OW16330   5.085   1.786   5.200
 3268SOL    HW116331   5.038   1.711   5.246
 3268SOL    HW216332   5.019   1.850   5.163
 3269SOL     OW16333   4.257   1.706   6.886
 3269SOL    HW116334   4.284   1.800   6.907
 3269SOL    HW216335   4.157   1.700   6.884
 3270SOL     OW16336   1.653   2.423   6.548
 3270SOL    HW116337   1.745   2.455   6.571
 3270SOL    HW216338   1.620   2.472   6.468
 3271SOL     OW16339   4.736   4.076   1.573
 3271SOL    HW116340   4.812   4.141   1.579
 3271SOL    HW216341   4.765   3.994   1.524
 3272SOL     OW16342   4.873   2.048   6.653
 3272SOL    HW116343   4.929   1.969   6.680
 3272SOL    HW216344   4.817   2.077   6.731
 3273SOL     OW16345   4.225   3.702   6.324
 3273SOL    HW116346   4.259   3.793   6.348
 3273SOL    HW216347   4.299   3.635   6.336
 3274SOL     OW16348   5.191   0.796   5.576
 3274SOL    HW116349   5.114   0.860   5.579
 3274SOL    HW216350   5.264   0.833   5.519
 3275SOL     OW16351   2.238   2.832   0.507
 3275SOL    HW116352   2.274   2.742   0.482
 3275SOL    HW216353   2.180   2.865   0.433
 3276SOL     OW16354   0.196   5.549   1.115
 3276SOL    HW116355   0.119   5.500   1.157
 3276SOL    HW216356   0.200   5.642   1.153
 3277SOL     OW16357   6.339   0.931   1.300
 3277SOL    HW116358   6.403   0.971   1.366
 3277SOL    HW216359   6.345   0.832   1.305
 3278SOL     OW16360   1.765   1.085   6.703
 3278SOL    HW116361   1.862   1.092   6.727
 3278SOL    HW216362   1.747   0.994   6.664
 3279SOL     OW16363   0.165   2.959   1.523
 3279SOL    HW116364   0.226   3.005   1.458
 3279SOL    HW216365   0.210   2.951   1.612
 3280SOL     OW16366   5.847   2.538   1.132
 3280SOL    HW116367   5.830   2.442   1.156
 3280SOL    HW216368   5.896   2.582   1.207
 3281SOL     OW16369   3.782   4.011   1.297
 3281SOL    HW116370   3.845   4.025   1.374
 3281SOL    HW216371   3.832   4.022   1.211
 3282SOL     OW16372   1.359   0.008   5.418
 3282SOL    HW116373   1.334   0.092   5.466
 3282SOL    HW216374   1.277   6.437   5.386
 3283SOL     OW16375   1.621   3.237   0.487
 3283SOL    HW116376   1.657   3.144   0.492
 3283SOL    HW216377   1.542   3.238   0.425
 3284SOL     OW16378   3.749   1.153   6.992
 3284SOL    HW116379   3.689   1.098   6.933
 3284SOL    HW216380   3.694   1.220   7.041
 3285SOL     OW16381   4.514   0.478   7.143
 3285SOL    HW116382   4.563   0.486   7.057
 3285SOL    HW216383   4.526   0.386   7.180
 3286SOL     OW16384   3.344   4.395   7.068
 3286SOL    HW116385   3.316   4.404   6.972
 3286SOL    HW216386   3.440   4.419   7.077
 3287SOL     OW16387   4.843   4.570   7.183
 3287SOL    HW116388   4.746   4.545   7.177
 3287SOL    HW216389   4.899   4.495   7.148
 3288SOL     OW16390   3.432   3.769   0.401
 3288SOL    HW116391   3.384   3.849   0.364
 3288SOL    HW216392   3.493   3.798   0.474
 3289SOL     OW16393   5.530   0.022   0.280
 3289SOL    HW116394   5.479   0.034   0.365
 3289SOL    HW216395   5.605   6.433   0.295
 3290SOL     OW16396   4.866   4.580   0.620
 3290SOL    HW116397   4.812   4.529   0.686
 3290SOL    HW216398   4.877   4.525   0.537
 3291SOL     OW16399   1.984   2.555   6.853
 3291SOL    HW116400   2.038   2.477   6.885
 3291SOL    HW216401   1.891   2.548   6.887
 3292SOL     OW16402   2.971   4.843   0.197
 3292SOL    HW116403   3.022   4.860   0.112
 3292SOL    HW216404   3.036   4.827   0.272
 3293SOL     OW16405   3.118   4.793   1.675
 3293SOL    HW116406   3.118   4.796   1.775
 3293SOL    HW216407   3.139   4.884   1.639
 3294SOL     OW16408   0.942   4.060   1.224
 3294SOL    HW116409   0.844   4.058   1.204
 3294SOL    HW216410   0.979   3.967   1.220
 3295SOL     OW16411   6.062   2.201   6.958
 3295SOL    HW116412   5.981   2.213   6.901
 3295SOL    HW216413   6.054   2.259   7.039
 3296SOL     OW16414   1.466   6.284   5.719
 3296SOL    HW116415   1.381   6.238   5.693
 3296SOL    HW216416   1.523   6.298   5.638
 3297SOL     OW16417   0.801   1.773   1.199
 3297SOL    HW116418   0.703   1.775   1.179
 3297SOL    HW216419   0.853   1.762   1.114
 3298SOL     OW16420   6.002   2.147   5.346
 3298SOL    HW116421   6.047   2.108   5.265
 3298SOL    HW216422   6.012   2.247   5.343
 3299SOL     OW16423   4.691   6.380   1.056
 3299SOL    HW116424   4.741   6.466   1.046
 3299SOL    HW216425   4.743   6.307   1.011
 3300SOL     OW16426   0.038   5.703   6.967
 3300SOL    HW116427   0.067   5.709   6.872
 3300SOL    HW216428   6.557   5.626   6.979
 3301SOL     OW16429   1.340   3.924   7.139
 3301SOL    HW116430   1.292   4.008   7.163
 3301SOL    HW216431   1.425   3.946   7.091
 3302SOL     OW16432   2.023   2.954   6.735
 3302SOL    HW116433   2.066   2.898   6.806
 3302SOL    HW216434   1.939   2.995   6.771
 3303SOL     OW16435   6.532   6.189   0.796
 3303SOL    HW116436   0.049   6.208   0.791
 3303SOL    HW216437   6.483   6.274   0.815
 3304SOL     OW16438   5.874   4.480   1.765
 3304SOL    HW116439   5.960   4.496   1.815
 3304SOL    HW216440   5.800   4.463   1.830
 3305SOL     OW16441   2.328   6.031   6.949
 3305SOL    HW116442   2.358   6.122   6.919
 3305SOL    HW216443   2.366   5.961   6.888
 3306SOL     OW16444   2.457   1.487   6.511
 3306SOL    HW116445   2.479   1.537   6.427
 3306SOL    HW216446   2.496   1.535   6.589
 3307SOL     OW16447   4.359   0.098   2.097
 3307SOL    HW116448   4.365   6.474   2.098
 3307SOL    HW216449   4.283   0.127   2.155
 3308SOL     OW16450   2.641   6.185   7.238
 3308SOL    HW116451   2.564   6.122   7.249
 3308SOL    HW216452   2.679   6.209   7.327
 3309SOL     OW16453   2.940   2.600   1.687
 3309SOL    HW116454   2.998   2.540   1.742
 3309SOL    HW216455   2.913   2.680   1.741
 3310SOL     OW16456   5.798   4.491   0.474
 3310SOL    HW116457   5.705   4.510   0.444
 3310SOL    HW216458   5.822   4.397   0.453
 3311SOL     OW16459   5.475   0.075   0.777
 3311SOL    HW116460   5.471   0.167   0.816
 3311SOL    HW216461   5.538   0.019   0.830
 3312SOL     OW16462   4.313   1.932   6.655
 3312SOL    HW116463   4.309   1.950   6.753
 3312SOL    HW216464   4.395   1.976   6.617
 3313SOL     OW16465   1.882   3.207   7.032
 3313SOL    HW116466   1.810   3.277   7.028
 3313SOL    HW216467   1.969   3.250   7.053
 3314SOL     OW16468   5.781   2.674   0.756
 3314SOL    HW116469   5.814   2.600   0.698
 3314SOL    HW216470   5.715   2.639   0.822
 3315SOL     OW16471   6.212   6.236   7.079
 3315SOL    HW116472   6.256   6.310   7.129
 3315SOL    HW216473   6.140   6.196   7.136
 3316SOL     OW16474   5.832   5.517   0.599
 3316SOL    HW116475   5.742   5.505   0.641
 3316SOL    HW216476   5.878   5.429   0.592
 3317SOL     OW16477   5.757   4.770   0.154
 3317SOL    HW116478   5.843   4.781   0.104
 3317SOL    HW216479   5.707   4.857   0.155
 3318SOL     OW16480   4.033   1.937   7.073
 3318SOL    HW116481   4.102   1.888   7.127
 3318SOL    HW216482   3.942   1.907   7.101
 3319SOL     OW16483   1.740   3.733   6.681
 3319SOL    HW116484   1.807   3.775   6.743
 3319SOL    HW216485   1.648   3.749   6.716
 3320SOL     OW16486   0.808   3.871   0.741
 3320SOL    HW116487   0.718   3.870   0.698
 3320SOL    HW216488   0.873   3.921   0.683
 3321SOL     OW16489   0.411   0.757   0.994
 3321SOL    HW116490   0.462   0.842   0.979
 3321SOL    HW216491   0.319   0.766   0.956
 3322SOL     OW16492   5.842   3.256   1.558
 3322SOL    HW116493   5.927   3.210   1.533
 3322SOL    HW216494   5.767   3.191   1.557
 3323SOL     OW16495   4.284   2.917   6.118
 3323SOL    HW116496   4.290   2.987   6.046
 3323SOL    HW216497   4.375   2.887   6.144
 3324SOL     OW16498   1.553   4.685   7.352
 3324SOL    HW116499   1.581   4.619   7.283
 3324SOL    HW216500   1.472   4.652   7.400
 3325SOL     OW16501   5.293   0.719   1.257
 3325SOL    HW116502   5.359   0.700   1.184
 3325SOL    HW216503   5.292   0.642   1.321
 3326SOL     OW16504   3.945   2.434   6.783
 3326SOL    HW116505   4.012   2.427   6.857
 3326SOL    HW216506   3.957   2.521   6.735
 3327SOL     OW16507   4.639   3.435   7.019
 3327SOL    HW116508   4.667   3.522   7.061
 3327SOL    HW216509   4.633   3.446   6.920
 3328SOL     OW16510   4.691   4.618   1.070
 3328SOL    HW116511   4.727   4.700   1.026
 3328SOL    HW216512   4.743   4.538   1.038
 3329SOL     OW16513   0.401   1.264   1.032
 3329SOL    HW116514   0.418   1.362   1.025
 3329SOL    HW216515   0.427   1.232   1.123
 3330SOL     OW16516   3.856   1.578   6.233
 3330SOL    HW116517   3.851   1.578   6.133
 3330SOL    HW216518   3.939   1.623   6.262
 3331SOL     OW16519   0.593   5.573   6.612
 3331SOL    HW116520   0.647   5.628   6.548
 3331SOL    HW216521   0.617   5.477   6.601
 3332SOL     OW16522   1.164   0.595   7.256
 3332SOL    HW116523   1.155   0.555   7.165
 3332SOL    HW216524   1.205   0.528   7.318
 3333SOL     OW16525   6.021   5.122   5.959
 3333SOL    HW116526   6.051   5.160   6.046
 3333SOL    HW216527   5.945   5.059   5.974
 3334SOL     OW16528   4.206   0.951   6.156
 3334SOL    HW116529   4.139   0.950   6.230
 3334SOL    HW216530   4.212   0.860   6.114
 3335SOL     OW16531   0.430   0.804   5.970
 3335SOL    HW116532   0.370   0.725   5.983
 3335SOL    HW216533   0.375   0.887   5.961
 3336SOL     OW16534   4.478   4.256   7.319
 3336SOL    HW116535   4.547   4.311   7.273
 3336SOL    HW216536   4.394   4.309   7.329
 3337SOL     OW16537   4.195   0.055   6.749
 3337SOL    HW116538   4.221   6.457   6.812
 3337SOL    HW216539   4.227   0.143   6.785
 3338SOL     OW16540   4.767   3.846   6.876
 3338SOL    HW116541   4.731   3.935   6.904
 3338SOL    HW216542   4.715   3.813   6.797
 3339SOL     OW16543   2.846   1.004   6.616
 3339SOL    HW116544   2.770   1.011   6.681
 3339SOL    HW216545   2.822   1.051   6.531
 3340SOL     OW16546   1.976   2.355   5.956
 3340SOL    HW116547   1.997   2.436   6.011
 3340SOL    HW216548   2.038   2.352   5.877
 3341SOL     OW16549   2.697   5.172   0.001
 3341SOL    HW116550   2.711   5.267   0.030
 3341SOL    HW216551   2.780   5.137   7.372
 3342SOL     OW16552   1.341   4.769   1.413
 3342SOL    HW116553   1.283   4.694   1.443
 3342SOL    HW216554   1.350   4.837   1.485
 3343SOL     OW16555   5.535   6.191   6.415
 3343SOL    HW116556   5.596   6.267   6.392
 3343SOL    HW216557   5.555   6.160   6.508
 3344SOL     OW16558   0.293   6.348   6.069
 3344SOL    HW116559   0.309   6.410   6.146
 3344SOL    HW216560   0.370   6.354   6.005
 3345SOL     OW16561   2.219   5.752   0.364
 3345SOL    HW116562   2.266   5.692   0.430
 3345SOL    HW216563   2.270   5.837   0.353
 3346SOL     OW16564   0.771   1.377   1.099
 3346SOL    HW116565   0.858   1.423   1.116
 3346SOL    HW216566   0.721   1.369   1.186
 3347SOL     OW16567   3.481   2.018   0.610
 3347SOL    HW116568   3.497   2.055   0.701
 3347SOL    HW216569   3.435   1.930   0.617
 3348SOL     OW16570   1.328   4.595   0.075
 3348SOL    HW116571   1.268   4.637   0.006
 3348SOL    HW216572   1.297   4.502   0.093
 3349SOL     OW16573   3.538   5.778   1.522
 3349SOL    HW116574   3.510   5.737   1.609
 3349SOL    HW216575   3.595   5.859   1.541
 3350SOL     OW16576   3.754   0.711   5.738
 3350SOL    HW116577   3.708   0.800   5.742
 3350SOL    HW216578   3.845   0.719   5.780
 3351SOL     OW16579   5.524   3.167   1.234
 3351SOL    HW116580   5.446   3.106   1.245
 3351SOL    HW216581   5.520   3.239   1.304
 3352SOL     OW16582   6.042   5.195   7.084
 3352SOL    HW116583   6.059   5.096   7.078
 3352SOL    HW216584   5.954   5.211   7.128
 3353SOL     OW16585   1.643   5.167   1.227
 3353SOL    HW116586   1.665   5.085   1.175
 3353SOL    HW216587   1.726   5.221   1.243
 3354SOL     OW16588   6.436   0.122   6.983
 3354SOL    HW116589   6.488   0.053   6.934
 3354SOL    HW216590   6.363   0.157   6.924
 3355SOL     OW16591   1.264   3.324   0.559
 3355SOL    HW116592   1.201   3.288   0.490
 3355SOL    HW216593   1.303   3.248   0.611
 3356SOL     OW16594   3.562   3.258   6.059
 3356SOL    HW116595   3.554   3.191   5.986
 3356SOL    HW216596   3.646   3.312   6.047
 3357SOL     OW16597   4.405   3.058   6.805
 3357SOL    HW116598   4.380   2.975   6.754
 3357SOL    HW216599   4.457   3.119   6.745
 3358SOL     OW16600   3.950   6.002   1.689
 3358SOL    HW116601   4.012   5.949   1.746
 3358SOL    HW216602   3.937   6.093   1.729
 3359SOL     OW16603   1.370   2.603   1.971
 3359SOL    HW116604   1.470   2.606   1.967
 3359SOL    HW216605   1.339   2.508   1.979
 3360SOL     OW16606   0.900   6.395   1.185
 3360SOL    HW116607   0.892   6.395   1.085
 3360SOL    HW216608   0.950   6.314   1.214
 3361SOL     OW16609   5.571   2.762   1.314
 3361SOL    HW116610   5.628   2.836   1.279
 3361SOL    HW216611   5.606   2.731   1.402
 3362SOL     OW16612   3.547   5.169   6.232
 3362SOL    HW116613   3.478   5.155   6.303
 3362SOL    HW216614   3.564   5.083   6.184
 3363SOL     OW16615   2.352   4.879   6.103
 3363SOL    HW116616   2.388   4.804   6.047
 3363SOL    HW216617   2.296   4.939   6.046
 3364SOL     OW16618   5.065   0.664   0.249
 3364SOL    HW116619   5.113   0.615   0.322
 3364SOL    HW216620   5.036   0.754   0.282
 3365SOL     OW16621   2.883   4.374   6.415
 3365SOL    HW116622   2.903   4.455   6.361
 3365SOL    HW216623   2.905   4.292   6.361
 3366SOL     OW16624   6.124   2.084   0.732
 3366SOL    HW116625   6.097   2.059   0.639
 3366SOL    HW216626   6.221   2.109   0.732
 3367SOL     OW16627   5.674   3.705   1.806
 3367SOL    HW116628   5.653   3.653   1.889
 3367SOL    HW216629   5.773   3.707   1.793
 3368SOL     OW16630   3.437   5.061   7.052
 3368SOL    HW116631   3.512   5.127   7.057
 3368SOL    HW216632   3.457   4.982   7.110
 3369SOL     OW16633   3.880   4.858   0.382
 3369SOL    HW116634   3.933   4.813   0.310
 3369SOL    HW216635   3.869   4.795   0.459
 3370SOL     OW16636   2.684   3.773   0.874
 3370SOL    HW116637   2.632   3.730   0.800
 3370SOL    HW216638   2.644   3.748   0.962
 3371SOL     OW16639   5.984   2.689   0.944
 3371SOL    HW116640   5.924   2.700   0.865
 3371SOL    HW216641   5.932   2.650   1.021
 3372SOL     OW16642   5.208   0.737   5.848
 3372SOL    HW116643   5.205   0.748   5.748
 3372SOL    HW216644   5.246   0.647   5.870
 3373SOL     OW16645   2.544   3.701   1.106
 3373SOL    HW116646   2.592   3.639   1.168
 3373SOL    HW216647   2.510   3.780   1.157
 3374SOL     OW16648   6.043   0.167   7.204
 3374SOL    HW116649   6.005   0.229   7.135
 3374SOL    HW216650   5.968   0.118   7.250
 3375SOL     OW16651   5.270   2.986   6.529
 3375SOL    HW116652   5.217   2.970   6.613
 3375SOL    HW216653   5.340   3.055   6.547
 3376SOL     OW16654   0.329   3.835   6.573
 3376SOL    HW116655   0.233   3.863   6.572
 3376SOL    HW216656   0.379   3.887   6.642
 3377SOL     OW16657   3.776   2.610   5.153
 3377SOL    HW116658   3.811   2.519   5.133
 3377SOL    HW216659   3.845   2.663   5.202
 3378SOL     OW16660   4.216   5.144   6.444
 3378SOL    HW116661   4.305   5.131   6.487
 3378SOL    HW216662   4.165   5.216   6.492
 3379SOL     OW16663   4.398   0.785   6.819
 3379SOL    HW116664   4.359   0.777   6.910
 3379SOL    HW216665   4.498   0.794   6.827
 3380SOL     OW16666   4.807   4.319   6.888
 3380SOL    HW116667   4.798   4.416   6.866
 3380SOL    HW216668   4.847   4.271   6.810
 3381SOL     OW16669   0.285   4.739   0.446
 3381SOL    HW116670   0.277   4.806   0.520
 3381SOL    HW216671   0.372   4.691   0.454
 3382SOL     OW16672   1.781   3.868   7.159
 3382SOL    HW116673   1.874   3.891   7.133
 3382SOL    HW216674   1.769   3.768   7.159
 3383SOL     OW16675   1.514   2.016   5.466
 3383SOL    HW116676   1.566   1.976   5.391
 3383SOL    HW216677   1.424   2.043   5.432
 3384SOL     OW16678   1.853   0.682   0.394
 3384SOL    HW116679   1.900   0.770   0.408
 3384SOL    HW216680   1.916   0.618   0.351
 3385SOL     OW16681   2.209   6.327   0.962
 3385SOL    HW116682   2.190   6.419   0.996
 3385SOL    HW216683   2.129   6.269   0.976
 3386SOL     OW16684   4.336   3.762   6.033
 3386SOL    HW116685   4.288   3.837   5.988
 3386SOL    HW216686   4.293   3.744   6.122
 3387SOL     OW16687   6.405   2.980   5.302
 3387SOL    HW116688   6.481   3.020   5.252
 3387SOL    HW216689   6.343   2.933   5.238
 3388SOL     OW16690   0.201   5.577   1.962
 3388SOL    HW116691   0.139   5.632   2.019
 3388SOL    HW216692   0.158   5.489   1.941
 3389SOL     OW16693   1.827   5.401   6.894
 3389SOL    HW116694   1.846   5.309   6.859
 3389SOL    HW216695   1.765   5.448   6.830
 3390SOL     OW16696   0.236   5.965   6.755
 3390SOL    HW116697   0.203   5.873   6.733
 3390SOL    HW216698   0.164   6.032   6.735
 3391SOL     OW16699   5.090   2.079   1.135
 3391SOL    HW116700   5.010   2.034   1.096
 3391SOL    HW216701   5.086   2.072   1.235
 3392SOL     OW16702   4.458   4.741   1.527
 3392SOL    HW116703   4.465   4.651   1.570
 3392SOL    HW216704   4.496   4.736   1.435
 3393SOL     OW16705   3.849   1.760   0.152
 3393SOL    HW116706   3.902   1.823   0.095
 3393SOL    HW216707   3.868   1.780   0.248
 3394SOL     OW16708   2.335   0.423   6.281
 3394SOL    HW116709   2.324   0.519   6.310
 3394SOL    HW216710   2.315   0.415   6.184
 3395SOL     OW16711   2.452   6.468   6.619
 3395SOL    HW116712   2.473   6.378   6.581
 3395SOL    HW216713   2.523   0.057   6.592
 3396SOL     OW16714   3.994   1.963   0.035
 3396SOL    HW116715   4.023   1.998   0.123
 3396SOL    HW216716   4.005   2.034   7.379
 3397SOL     OW16717   4.921   2.238   1.579
 3397SOL    HW116718   4.880   2.190   1.657
 3397SOL    HW216719   4.957   2.172   1.514
 3398SOL     OW16720   4.340   3.030   5.873
 3398SOL    HW116721   4.363   2.933   5.872
 3398SOL    HW216722   4.363   3.071   5.785
 3399SOL     OW16723   4.339   3.514   1.985
 3399SOL    HW116724   4.365   3.561   2.069
 3399SOL    HW216725   4.422   3.481   1.939
 3400SOL     OW16726   5.814   4.127   6.986
 3400SOL    HW116727   5.858   4.039   7.001
 3400SOL    HW216728   5.872   4.185   6.929
 3401SOL     OW16729   0.774   2.910   6.266
 3401SOL    HW116730   0.756   2.841   6.196
 3401SOL    HW216731   0.729   2.883   6.352
 3402SOL     OW16732   2.363   4.970   0.591
 3402SOL    HW116733   2.378   4.884   0.543
 3402SOL    HW216734   2.271   4.970   0.631
 3403SOL     OW16735   6.540   5.389   6.310
 3403SOL    HW116736   6.564   5.333   6.231
 3403SOL    HW216737   6.447   5.365   6.340
 3404SOL     OW16738   3.009   2.162   1.785
 3404SOL    HW116739   2.913   2.136   1.777
 3404SOL    HW216740   3.066   2.079   1.793
 3405SOL     OW16741   6.296   4.344   5.465
 3405SOL    HW116742   6.283   4.249   5.436
 3405SOL    HW216743   6.326   4.399   5.387
 3406SOL     OW16744   1.141   3.222   0.335
 3406SOL    HW116745   1.124   3.286   0.260
 3406SOL    HW216746   1.075   3.147   0.329
 3407SOL     OW16747   6.098   3.514   6.039
 3407SOL    HW116748   6.157   3.595   6.039
 3407SOL    HW216749   6.124   3.454   5.962
 3408SOL     OW16750   0.368   5.353   0.228
 3408SOL    HW116751   0.320   5.305   0.154
 3408SOL    HW216752   0.339   5.449   0.230
 3409SOL     OW16753   4.478   4.338   1.868
 3409SOL    HW116754   4.504   4.241   1.863
 3409SOL    HW216755   4.388   4.346   1.911
 3410SOL     OW16756   0.303   4.167   1.462
 3410SOL    HW116757   0.376   4.149   1.527
 3410SOL    HW216758   0.287   4.265   1.456
 3411SOL     OW16759   1.133   0.827   7.112
 3411SOL    HW116760   1.134   0.749   7.174
 3411SOL    HW216761   1.215   0.825   7.054
 3412SOL     OW16762   1.819   1.942   1.334
 3412SOL    HW116763   1.723   1.919   1.317
 3412SOL    HW216764   1.827   1.988   1.422
 3413SOL     OW16765   6.406   5.860   7.259
 3413SOL    HW116766   6.346   5.855   7.179
 3413SOL    HW216767   6.441   5.768   7.280
 3414SOL     OW16768   6.231   1.941   6.611
 3414SOL    HW116769   6.160   1.900   6.553
 3414SOL    HW216770   6.314   1.885   6.606
 3415SOL     OW16771   4.193   1.558   5.574
 3415SOL    HW116772   4.242   1.634   5.530
 3415SOL    HW216773   4.104   1.547   5.532
 3416SOL     OW16774   5.015   0.083   7.264
 3416SOL    HW116775   5.115   0.083   7.259
 3416SOL    HW216776   4.982   0.177   7.274
 3417SOL     OW16777   5.779   4.317   0.804
 3417SOL    HW116778   5.808   4.239   0.748
 3417SOL    HW216779   5.850   4.388   0.802
 3418SOL     OW16780   1.366   1.243   0.336
 3418SOL    HW116781   1.403   1.197   0.255
 3418SOL    HW216782   1.417   1.214   0.417
 3419SOL     OW16783   5.967   1.511   0.672
 3419SOL    HW116784   5.900   1.584   0.689
 3419SOL    HW216785   5.945   1.432   0.729
 3420SOL     OW16786   2.169   4.813   1.376
 3420SOL    HW116787   2.094   4.813   1.310
 3420SOL    HW216788   2.243   4.871   1.343
 3421SOL     OW16789   3.999   0.931   6.772
 3421SOL    HW116790   3.916   0.900   6.725
 3421SOL    HW216791   4.015   0.874   6.852
 3422SOL     OW16792   5.530   6.218   0.627
 3422SOL    HW116793   5.433   6.216   0.601
 3422SOL    HW216794   5.543   6.165   0.710
 3423SOL     OW16795   2.973   0.756   6.507
 3423SOL    HW116796   2.921   0.681   6.466
 3423SOL    HW216797   2.910   0.825   6.543
 3424SOL     OW16798   5.192   6.231   6.774
 3424SOL    HW116799   5.198   6.131   6.772
 3424SOL    HW216800   5.224   6.269   6.687
 3425SOL     OW16801   1.387   3.802   0.699
 3425SOL    HW116802   1.323   3.826   0.772
 3425SOL    HW216803   1.388   3.703   0.687
 3426SOL     OW16804   5.254   4.512   6.571
 3426SOL    HW116805   5.157   4.495   6.585
 3426SOL    HW216806   5.275   4.608   6.589
 3427SOL     OW16807   5.072   2.460   6.222
 3427SOL    HW116808   5.068   2.467   6.123
 3427SOL    HW216809   5.006   2.523   6.263
 3428SOL     OW16810   6.254   0.329   1.261
 3428SOL    HW116811   6.184   0.398   1.242
 3428SOL    HW216812   6.342   0.361   1.226
 3429SOL     OW16813   1.329   2.420   0.024
 3429SOL    HW116814   1.380   2.496   7.399
 3429SOL    HW216815   1.367   2.333   7.407
 3430SOL     OW16816   0.406   6.186   6.767
 3430SOL    HW116817   0.501   6.155   6.776
 3430SOL    HW216818   0.346   6.107   6.758
 3431SOL     OW16819   2.721   2.915   6.989
 3431SOL    HW116820   2.774   2.830   6.989
 3431SOL    HW216821   2.646   2.908   6.923
 3432SOL     OW16822   5.228   2.395   0.828
 3432SOL    HW116823   5.165   2.362   0.758
 3432SOL    HW216824   5.189   2.379   0.918
 3433SOL     OW16825   2.650   0.009   0.206
 3433SOL    HW116826   2.713   0.071   0.252
 3433SOL    HW216827   2.604   6.427   0.273
 3434SOL     OW16828   1.424   0.378   6.226
 3434SOL    HW116829   1.447   0.429   6.143
 3434SOL    HW216830   1.393   0.440   6.297
 3435SOL     OW16831   3.190   5.237   6.265
 3435SOL    HW116832   3.207   5.285   6.178
 3435SOL    HW216833   3.255   5.268   6.333
 3436SOL     OW16834   5.572   1.516   6.015
 3436SOL    HW116835   5.540   1.426   6.044
 3436SOL    HW216836   5.671   1.513   5.998
 3437SOL     OW16837   2.532   4.585   0.005
 3437SOL    HW116838   2.579   4.504   0.040
 3437SOL    HW216839   2.445   4.558   7.378
 3438SOL     OW16840   4.400   0.126   0.824
 3438SOL    HW116841   4.444   0.146   0.912
 3438SOL    HW216842   4.470   0.113   0.754
 3439SOL     OW16843   6.081   0.219   6.502
 3439SOL    HW116844   6.015   0.211   6.427
 3439SOL    HW216845   6.101   0.316   6.519
 3440SOL     OW16846   3.717   2.430   1.176
 3440SOL    HW116847   3.660   2.501   1.136
 3440SOL    HW216848   3.688   2.412   1.270
 3441SOL     OW16849   2.072   3.523   0.475
 3441SOL    HW116850   1.981   3.484   0.490
 3441SOL    HW216851   2.081   3.548   0.379
 3442SOL     OW16852   3.006   2.667   0.066
 3442SOL    HW116853   2.952   2.631   0.142
 3442SOL    HW216854   2.998   2.767   0.063
 3443SOL     OW16855   4.708   4.430   0.790
 3443SOL    HW116856   4.777   4.364   0.821
 3443SOL    HW216857   4.623   4.415   0.841
 3444SOL     OW16858   1.531   4.769   6.714
 3444SOL    HW116859   1.464   4.729   6.778
 3444SOL    HW216860   1.582   4.841   6.760
 3445SOL     OW16861   0.573   5.973   0.191
 3445SOL    HW116862   0.537   5.886   0.225
 3445SOL    HW216863   0.563   6.043   0.262
 3446SOL     OW16864   1.806   1.559   6.829
 3446SOL    HW116865   1.884   1.497   6.835
 3446SOL    HW216866   1.817   1.632   6.896
 3447SOL     OW16867   2.791   0.430   6.872
 3447SOL    HW116868   2.817   0.368   6.798
 3447SOL    HW216869   2.778   0.522   6.836
 3448SOL     OW16870   5.732   6.167   0.083
 3448SOL    HW116871   5.680   6.198   0.004
 3448SOL    HW216872   5.722   6.068   0.093
 3449SOL     OW16873   2.973   5.122   7.024
 3449SOL    HW116874   2.940   5.207   6.983
 3449SOL    HW216875   2.936   5.044   6.975
 3450SOL     OW16876   0.652   3.682   5.222
 3450SOL    HW116877   0.750   3.692   5.235
 3450SOL    HW216878   0.633   3.590   5.187
 3451SOL     OW16879   4.002   4.178   0.227
 3451SOL    HW116880   4.098   4.166   0.255
 3451SOL    HW216881   3.999   4.214   0.134
 3452SOL     OW16882   2.278   5.603   6.633
 3452SOL    HW116883   2.302   5.517   6.677
 3452SOL    HW216884   2.178   5.609   6.623
 3453SOL     OW16885   0.742   3.321   5.337
 3453SOL    HW116886   0.699   3.364   5.258
 3453SOL    HW216887   0.788   3.236   5.308
 3454SOL     OW16888   5.810   3.523   1.563
 3454SOL    HW116889   5.711   3.539   1.566
 3454SOL    HW216890   5.827   3.425   1.553
 3455SOL     OW16891   1.456   3.144   1.661
 3455SOL    HW116892   1.363   3.181   1.663
 3455SOL    HW216893   1.476   3.098   1.747
 3456SOL     OW16894   1.324   4.205   0.654
 3456SOL    HW116895   1.255   4.200   0.726
 3456SOL    HW216896   1.342   4.301   0.631
 3457SOL     OW16897   3.808   3.367   6.006
 3457SOL    HW116898   3.849   3.350   5.916
 3457SOL    HW216899   3.841   3.455   6.041
 3458SOL     OW16900   3.701   6.443   1.407
 3458SOL    HW116901   3.722   6.382   1.484
 3458SOL    HW216902   3.720   0.062   1.433
 3459SOL     OW16903   2.397   3.164   5.978
 3459SOL    HW116904   2.429   3.172   6.072
 3459SOL    HW216905   2.299   3.184   5.974
 3460SOL     OW16906   0.236   1.494   6.392
 3460SOL    HW116907   0.331   1.518   6.374
 3460SOL    HW216908   0.181   1.512   6.310
 3461SOL     OW16909   5.556   5.344   6.625
 3461SOL    HW116910   5.515   5.279   6.689
 3461SOL    HW216911   5.588   5.425   6.675
 3462SOL     OW16912   3.958   2.100   1.072
 3462SOL    HW116913   4.042   2.153   1.081
 3462SOL    HW216914   3.974   2.020   1.013
 3463SOL     OW16915   4.217   6.223   6.461
 3463SOL    HW116916   4.245   6.185   6.373
 3463SOL    HW216917   4.242   6.319   6.466
 3464SOL     OW16918   1.066   2.683   7.364
 3464SOL    HW116919   1.051   2.702   7.267
 3464SOL    HW216920   1.141   2.618   7.374
 3465SOL     OW16921   5.144   4.785   1.779
 3465SOL    HW116922   5.094   4.775   1.865
 3465SOL    HW216923   5.101   4.730   1.708
 3466SOL     OW16924   5.899   0.645   1.028
 3466SOL    HW116925   5.823   0.640   1.093
 3466SOL    HW216926   5.904   0.738   0.990
 3467SOL     OW16927   3.118   5.877   6.614
 3467SOL    HW116928   3.038   5.882   6.556
 3467SOL    HW216929   3.105   5.936   6.694
 3468SOL     OW16930   4.321   2.791   5.604
 3468SOL    HW116931   4.228   2.791   5.568
 3468SOL    HW216932   4.379   2.733   5.546
 3469SOL     OW16933   3.268   1.355   6.358
 3469SOL    HW116934   3.176   1.334   6.390
 3469SOL    HW216935   3.331   1.282   6.386
 3470SOL     OW16936   3.509   0.798   5.256
 3470SOL    HW116937   3.557   0.835   5.336
 3470SOL    HW216938   3.575   0.758   5.193
 3471SOL     OW16939   5.220   1.270   0.760
 3471SOL    HW116940   5.192   1.366   0.765
 3471SOL    HW216941   5.313   1.264   0.723
 3472SOL     OW16942   6.025   2.419   5.327
 3472SOL    HW116943   6.095   2.475   5.371
 3472SOL    HW216944   5.940   2.471   5.319
 3473SOL     OW16945   1.922   3.501   6.214
 3473SOL    HW116946   1.843   3.442   6.229
 3473SOL    HW216947   1.897   3.576   6.152
 3474SOL     OW16948   4.323   6.058   7.252
 3474SOL    HW116949   4.390   6.131   7.267
 3474SOL    HW216950   4.273   6.075   7.167
 3475SOL     OW16951   6.174   0.698   0.639
 3475SOL    HW116952   6.122   0.615   0.618
 3475SOL    HW216953   6.153   0.768   0.570
 3476SOL     OW16954   0.366   3.754   7.078
 3476SOL    HW116955   0.408   3.778   7.165
 3476SOL    HW216956   0.429   3.697   7.025
 3477SOL     OW16957   1.625   4.304   0.610
 3477SOL    HW116958   1.608   4.206   0.612
 3477SOL    HW216959   1.553   4.350   0.559
 3478SOL     OW16960   3.567   3.846   1.279
 3478SOL    HW116961   3.561   3.796   1.365
 3478SOL    HW216962   3.644   3.909   1.282
 3479SOL     OW16963   3.928   3.860   7.097
 3479SOL    HW116964   3.907   3.933   7.162
 3479SOL    HW216965   3.963   3.780   7.147
 3480SOL     OW16966   5.886   0.624   6.869
 3480SOL    HW116967   5.814   0.679   6.826
 3480SOL    HW216968   5.970   0.678   6.874
 3481SOL     OW16969   1.209   3.487   7.098
 3481SOL    HW116970   1.132   3.446   7.050
 3481SOL    HW216971   1.179   3.517   7.189
 3482SOL     OW16972   3.906   6.414   5.646
 3482SOL    HW116973   3.999   6.451   5.660
 3482SOL    HW216974   3.876   6.434   5.553
 3483SOL     OW16975   0.036   3.665   6.558
 3483SOL    HW116976   0.047   3.764   6.555
 3483SOL    HW216977   0.051   3.633   6.651
 3484SOL     OW16978   2.038   2.369   0.039
 3484SOL    HW116979   1.967   2.301   0.060
 3484SOL    HW216980   2.050   2.429   0.118
 3485SOL     OW16981   3.850   3.291   0.859
 3485SOL    HW116982   3.928   3.273   0.919
 3485SOL    HW216983   3.809   3.204   0.831
 3486SOL     OW16984   5.519   2.149   1.180
 3486SOL    HW116985   5.612   2.185   1.187
 3486SOL    HW216986   5.479   2.176   1.092
 3487SOL     OW16987   2.100   0.105   6.794
 3487SOL    HW116988   2.058   0.082   6.881
 3487SOL    HW216989   2.197   0.124   6.808
 3488SOL     OW16990   3.729   3.070   6.796
 3488SOL    HW116991   3.732   3.020   6.883
 3488SOL    HW216992   3.655   3.033   6.739
 3489SOL     OW16993   1.429   3.380   6.960
 3489SOL    HW116994   1.360   3.422   7.020
 3489SOL    HW216995   1.410   3.282   6.951
 3490SOL     OW16996   0.156   5.973   5.513
 3490SOL    HW116997   0.214   5.892   5.507
 3490SOL    HW216998   0.081   5.965   5.447
 3491SOL     OW16999   2.678   6.225   6.285
 3491SOL    HW117000   2.705   6.321   6.294
 3491SOL    HW217001   2.640   6.209   6.194
 3492SOL     OW17002   1.610   2.042   1.066
 3492SOL    HW117003   1.708   2.034   1.047
 3492SOL    HW217004   1.585   1.979   1.140
 3493SOL     OW17005   0.776   1.938   7.272
 3493SOL    HW117006   0.808   1.932   7.178
 3493SOL    HW217007   0.686   1.982   7.274
 3494SOL     OW17008   4.865   2.774   0.056
 3494SOL    HW117009   4.772   2.749   0.029
 3494SOL    HW217010   4.880   2.748   0.151
 3495SOL     OW17011   5.677   5.897   0.073
 3495SOL    HW117012   5.683   5.877   0.170
 3495SOL    HW217013   5.582   5.889   0.042
 3496SOL     OW17014   6.062   0.928   1.306
 3496SOL    HW117015   6.162   0.937   1.298
 3496SOL    HW217016   6.038   0.912   1.402
 3497SOL     OW17017   1.742   6.055   7.365
 3497SOL    HW117018   1.671   6.075   7.297
 3497SOL    HW217019   1.755   6.134   0.011
 3498SOL     OW17020   1.109   2.285   6.766
 3498SOL    HW117021   1.140   2.344   6.692
 3498SOL    HW217022   1.016   2.310   6.793
 3499SOL     OW17023   1.351   3.498   0.362
 3499SOL    HW117024   1.384   3.582   0.407
 3499SOL    HW217025   1.327   3.430   0.432
 3500SOL     OW17026   0.870   2.957   7.086
 3500SOL    HW117027   0.809   2.905   7.145
 3500SOL    HW217028   0.837   2.954   6.992
 3501SOL     OW17029   1.614   2.483   7.176
 3501SOL    HW117030   1.518   2.494   7.149
 3501SOL    HW217031   1.673   2.512   7.100
 3502SOL     OW17032   1.298   4.723   1.016
 3502SOL    HW117033   1.366   4.736   1.088
 3502SOL    HW217034   1.343   4.713   0.928
 3503SOL     OW17035   5.136   2.445   7.044
 3503SOL    HW117036   5.154   2.541   7.064
 3503SOL    HW217037   5.065   2.410   7.105
 3504SOL     OW17038   3.105   1.016   6.705
 3504SOL    HW117039   3.138   1.104   6.739
 3504SOL    HW217040   3.012   1.026   6.670
 3505SOL     OW17041   2.124   2.740   0.749
 3505SOL    HW117042   2.185   2.734   0.828
 3505SOL    HW217043   2.172   2.784   0.673
 3506SOL     OW17044   2.231   6.463   7.405
 3506SOL    HW117045   2.152   6.405   7.385
 3506SOL    HW217046   2.259   6.449   0.086
 3507SOL     OW17047   1.879   1.122   6.156
 3507SOL    HW117048   1.978   1.123   6.170
 3507SOL    HW217049   1.834   1.086   6.238
 3508SOL     OW17050   1.099   3.605   7.345
 3508SOL    HW117051   1.004   3.589   7.319
 3508SOL    HW217052   1.121   3.549   0.011
 3509SOL     OW17053   4.902   0.838   7.412
 3509SOL    HW117054   4.848   0.756   7.394
 3509SOL    HW217055   4.852   0.919   7.379
 3510SOL     OW17056   1.214   2.434   6.561
 3510SOL    HW117057   1.277   2.502   6.597
 3510SOL    HW217058   1.231   2.422   6.463
 3511SOL     OW17059   1.166   1.096   1.665
 3511SOL    HW117060   1.193   1.192   1.656
 3511SOL    HW217061   1.238   1.047   1.714
 3512SOL     OW17062   4.943   5.008   0.383
 3512SOL    HW117063   4.893   4.936   0.431
 3512SOL    HW217064   5.026   5.029   0.434
 3513SOL     OW17065   4.096   0.410   5.280
 3513SOL    HW117066   4.109   0.346   5.355
 3513SOL    HW217067   4.064   0.360   5.199
 3514SOL     OW17068   6.424   1.564   6.012
 3514SOL    HW117069   6.369   1.564   5.929
 3514SOL    HW217070   6.376   1.613   6.085
 3515SOL     OW17071   1.463   2.372   0.547
 3515SOL    HW117072   1.562   2.386   0.540
 3515SOL    HW217073   1.419   2.405   0.463
 3516SOL     OW17074   1.115   3.892   6.718
 3516SOL    HW117075   1.091   3.843   6.634
 3516SOL    HW217076   1.157   3.980   6.696
 3517SOL     OW17077   1.942   4.182   0.365
 3517SOL    HW117078   1.933   4.266   0.418
 3517SOL    HW217079   1.951   4.104   0.426
 3518SOL     OW17080   4.234   3.177   6.978
 3518SOL    HW117081   4.290   3.229   7.043
 3518SOL    HW217082   4.294   3.133   6.911
 3519SOL     OW17083   4.461   3.225   1.175
 3519SOL    HW117084   4.507   3.179   1.100
 3519SOL    HW217085   4.525   3.236   1.251
 3520SOL     OW17086   0.758   3.295   2.044
 3520SOL    HW117087   0.675   3.242   2.026
 3520SOL    HW217088   0.833   3.232   2.067
 3521SOL     OW17089   1.859   1.001   0.218
 3521SOL    HW117090   1.915   0.970   0.295
 3521SOL    HW217091   1.905   0.978   0.132
 3522SOL     OW17092   0.823   0.432   6.548
 3522SOL    HW117093   0.756   0.361   6.524
 3522SOL    HW217094   0.788   0.487   6.623
 3523SOL     OW17095   2.460   3.447   7.002
 3523SOL    HW117096   2.411   3.526   7.037
 3523SOL    HW217097   2.421   3.363   7.039
 3524SOL     OW17098   6.454   0.650   0.081
 3524SOL    HW117099   6.429   0.727   0.140
 3524SOL    HW217100   6.372   0.606   0.046
 3525SOL     OW17101   2.656   0.978   5.973
 3525SOL    HW117102   2.558   0.964   5.986
 3525SOL    HW217103   2.694   0.899   5.925
 3526SOL     OW17104   3.949   1.828   1.810
 3526SOL    HW117105   3.896   1.748   1.838
 3526SOL    HW217106   3.898   1.911   1.833
 3527SOL     OW17107   1.514   3.375   6.433
 3527SOL    HW117108   1.511   3.471   6.407
 3527SOL    HW217109   1.423   3.345   6.462
 3528SOL     OW17110   6.494   3.841   6.803
 3528SOL    HW117111   6.441   3.861   6.886
 3528SOL    HW217112   6.529   3.748   6.808
 3529SOL     OW17113   5.305   3.598   6.492
 3529SOL    HW117114   5.400   3.584   6.463
 3529SOL    HW217115   5.257   3.510   6.491
 3530SOL     OW17116   4.277   2.540   6.253
 3530SOL    HW117117   4.238   2.589   6.175
 3530SOL    HW217118   4.367   2.505   6.227
 3531SOL     OW17119   0.914   0.616   1.419
 3531SOL    HW117120   0.878   0.709   1.415
 3531SOL    HW217121   0.901   0.571   1.330
 3532SOL     OW17122   0.668   4.978   7.372
 3532SOL    HW117123   0.715   4.958   7.286
 3532SOL    HW217124   0.573   4.949   7.365
 3533SOL     OW17125   5.756   1.490   1.155
 3533SOL    HW117126   5.746   1.409   1.097
 3533SOL    HW217127   5.689   1.486   1.230
 3534SOL     OW17128   2.837   2.580   0.268
 3534SOL    HW117129   2.798   2.492   0.238
 3534SOL    HW217130   2.763   2.645   0.285
 3535SOL     OW17131   3.310   1.777   6.621
 3535SOL    HW117132   3.282   1.711   6.691
 3535SOL    HW217133   3.230   1.831   6.593
 3536SOL     OW17134   1.504   2.878   7.022
 3536SOL    HW117135   1.567   2.898   7.098
 3536SOL    HW217136   1.557   2.849   6.942
 3537SOL     OW17137   3.139   1.190   0.227
 3537SOL    HW117138   3.158   1.216   0.132
 3537SOL    HW217139   3.040   1.190   0.242
 3538SOL     OW17140   1.948   0.751   6.210
 3538SOL    HW117141   1.850   0.764   6.192
 3538SOL    HW217142   2.001   0.798   6.140
 3539SOL     OW17143   5.455   2.333   0.211
 3539SOL    HW117144   5.440   2.264   0.140
 3539SOL    HW217145   5.536   2.387   0.189
 3540SOL     OW17146   1.076   5.826   6.576
 3540SOL    HW117147   1.136   5.774   6.515
 3540SOL    HW217148   1.131   5.875   6.644
 3541SOL     OW17149   3.830   6.243   0.833
 3541SOL    HW117150   3.757   6.310   0.834
 3541SOL    HW217151   3.804   6.165   0.889
 3542SOL     OW17152   2.770   3.958   7.298
 3542SOL    HW117153   2.707   4.032   7.321
 3542SOL    HW217154   2.770   3.943   7.199
 3543SOL     OW17155   3.205   3.516   6.246
 3543SOL    HW117156   3.263   3.574   6.304
 3543SOL    HW217157   3.249   3.427   6.233
 3544SOL     OW17158   5.875   0.205   6.318
 3544SOL    HW117159   5.841   0.299   6.316
 3544SOL    HW217160   5.798   0.142   6.324
 3545SOL     OW17161   1.252   6.151   5.642
 3545SOL    HW117162   1.237   6.070   5.584
 3545SOL    HW217163   1.187   6.223   5.616
 3546SOL     OW17164   3.158   2.601   5.963
 3546SOL    HW117165   3.136   2.513   5.921
 3546SOL    HW217166   3.212   2.586   6.046
 3547SOL     OW17167   3.550   5.014   0.049
 3547SOL    HW117168   3.457   5.046   0.066
 3547SOL    HW217169   3.589   4.977   0.133
 3548SOL     OW17170   2.737   0.010   6.338
 3548SOL    HW117171   2.696   0.064   6.411
 3548SOL    HW217172   2.832   0.038   6.326
 3549SOL     OW17173   4.709   3.693   7.100
 3549SOL    HW117174   4.775   3.711   7.173
 3549SOL    HW217175   4.736   3.742   7.017
 3550SOL     OW17176   0.465   2.616   0.922
 3550SOL    HW117177   0.501   2.530   0.886
 3550SOL    HW217178   0.533   2.688   0.911
 3551SOL     OW17179   5.621   0.027   5.810
 3551SOL    HW117180   5.682   0.084   5.754
 3551SOL    HW217181   5.640   0.044   5.906
 3552SOL     OW17182   4.924   2.710   0.894
 3552SOL    HW117183   4.893   2.690   0.802
 3552SOL    HW217184   5.021   2.689   0.903
 3553SOL     OW17185   3.615   5.348   0.232
 3553SOL    HW117186   3.517   5.338   0.214
 3553SOL    HW217187   3.632   5.334   0.329
 3554SOL     OW17188   5.646   6.422   0.955
 3554SOL    HW117189   5.664   0.008   1.032
 3554SOL    HW217190   5.733   6.397   0.912
 3555SOL     OW17191   2.416   1.445   1.139
 3555SOL    HW117192   2.377   1.488   1.220
 3555SOL    HW217193   2.386   1.493   1.057
 3556SOL     OW17194   1.818   3.468   6.714
 3556SOL    HW117195   1.915   3.458   6.692
 3556SOL    HW217196   1.789   3.561   6.694
 3557SOL     OW17197   6.168   2.338   5.106
 3557SOL    HW117198   6.113   2.367   5.184
 3557SOL    HW217199   6.162   2.239   5.096
 3558SOL     OW17200   2.920   4.594   6.263
 3558SOL    HW117201   2.980   4.674   6.272
 3558SOL    HW217202   2.825   4.625   6.257
 3559SOL     OW17203   1.875   4.270   1.338
 3559SOL    HW117204   1.818   4.282   1.257
 3559SOL    HW217205   1.864   4.349   1.399
 3560SOL     OW17206   1.876   0.078   0.993
 3560SOL    HW117207   1.842   0.059   0.901
 3560SOL    HW217208   1.818   0.032   1.060
 3561SOL     OW17209   3.420   3.654   1.147
 3561SOL    HW117210   3.467   3.567   1.165
 3561SOL    HW217211   3.475   3.729   1.183
 3562SOL     OW17212   4.415   4.529   5.599
 3562SOL    HW117213   4.496   4.557   5.547
 3562SOL    HW217214   4.386   4.438   5.570
 3563SOL     OW17215   0.539   5.735   0.344
 3563SOL    HW117216   0.632   5.728   0.309
 3563SOL    HW217217   0.537   5.791   0.426
 3564SOL     OW17218   4.057   4.792   1.237
 3564SOL    HW117219   4.133   4.727   1.242
 3564SOL    HW217220   4.083   4.869   1.178
 3565SOL     OW17221   5.132   6.344   5.799
 3565SOL    HW117222   5.117   6.332   5.898
 3565SOL    HW217223   5.230   6.347   5.780
 3566SOL     OW17224   6.550   5.947   5.302
 3566SOL    HW117225   6.576   6.001   5.222
 3566SOL    HW217226   6.581   5.853   5.290
 3567SOL     OW17227   3.648   3.959   6.187
 3567SOL    HW117228   3.670   4.013   6.106
 3567SOL    HW217229   3.550   3.965   6.206
 3568SOL     OW17230   5.169   0.891   1.596
 3568SOL    HW117231   5.258   0.930   1.572
 3568SOL    HW217232   5.161   0.885   1.696
 3569SOL     OW17233   0.401   3.455   5.506
 3569SOL    HW117234   0.382   3.360   5.528
 3569SOL    HW217235   0.499   3.473   5.515
 3570SOL     OW17236   1.410   2.409   1.563
 3570SOL    HW117237   1.491   2.450   1.605
 3570SOL    HW217238   1.334   2.411   1.627
 3571SOL     OW17239   6.037   1.861   0.867
 3571SOL    HW117240   5.965   1.824   0.809
 3571SOL    HW217241   6.075   1.944   0.826
 3572SOL     OW17242   3.575   6.250   5.926
 3572SOL    HW117243   3.537   6.338   5.956
 3572SOL    HW217244   3.503   6.195   5.884
 3573SOL     OW17245   0.636   0.245   6.470
 3573SOL    HW117246   0.539   0.238   6.493
 3573SOL    HW217247   0.645   0.257   6.371
 3574SOL     OW17248   6.544   1.055   0.103
 3574SOL    HW117249   6.532   1.049   0.004
 3574SOL    HW217250   6.535   1.151   0.132
 3575SOL     OW17251   0.567   0.670   6.967
 3575SOL    HW117252   0.619   0.691   7.050
 3575SOL    HW217253   0.501   0.743   6.950
 3576SOL     OW17254   5.382   0.304   1.120
 3576SOL    HW117255   5.447   0.277   1.191
 3576SOL    HW217256   5.290   0.309   1.159
 3577SOL     OW17257   5.808   2.182   1.965
 3577SOL    HW117258   5.849   2.108   2.017
 3577SOL    HW217259   5.720   2.207   2.006
 3578SOL     OW17260   3.308   3.036   5.758
 3578SOL    HW117261   3.330   3.050   5.662
 3578SOL    HW217262   3.298   2.938   5.776
 3579SOL     OW17263   1.965   4.783   1.194
 3579SOL    HW117264   1.906   4.718   1.242
 3579SOL    HW217265   1.909   4.848   1.143
 3580SOL     OW17266   2.513   0.064   7.384
 3580SOL    HW117267   2.419   0.029   7.387
 3580SOL    HW217268   2.557   0.049   0.058
 3581SOL     OW17269   2.396   2.707   6.692
 3581SOL    HW117270   2.461   2.670   6.758
 3581SOL    HW217271   2.366   2.634   6.630
 3582SOL     OW17272   3.770   0.055   6.936
 3582SOL    HW117273   3.726   0.145   6.929
 3582SOL    HW217274   3.727   0.003   7.011
 3583SOL     OW17275   4.180   4.715   6.427
 3583SOL    HW117276   4.251   4.647   6.408
 3583SOL    HW217277   4.192   4.793   6.366
 3584SOL     OW17278   1.469   2.430   6.874
 3584SOL    HW117279   1.388   2.403   6.926
 3584SOL    HW217280   1.442   2.490   6.799
 3585SOL     OW17281   3.549   1.670   5.378
 3585SOL    HW117282   3.621   1.603   5.361
 3585SOL    HW217283   3.566   1.752   5.323
 3586SOL     OW17284   1.807   3.969   5.644
 3586SOL    HW117285   1.778   4.013   5.559
 3586SOL    HW217286   1.907   3.968   5.649
 3587SOL     OW17287   0.325   1.827   0.491
 3587SOL    HW117288   0.342   1.814   0.393
 3587SOL    HW217289   0.357   1.747   0.541
 3588SOL     OW17290   3.742   0.616   5.483
 3588SOL    HW117291   3.756   0.626   5.581
 3588SOL    HW217292   3.699   0.699   5.447
 3589SOL     OW17293   2.879   3.460   5.369
 3589SOL    HW117294   2.958   3.417   5.326
 3589SOL    HW217295   2.796   3.409   5.346
 3590SOL     OW17296   5.863   2.183   0.004
 3590SOL    HW117297   5.802   2.108   0.028
 3590SOL    HW217298   5.826   2.232   7.339
 3591SOL     OW17299   3.055   4.575   6.809
 3591SOL    HW117300   3.130   4.508   6.813
 3591SOL    HW217301   3.093   4.667   6.807
 3592SOL     OW17302   1.532   6.202   1.494
 3592SOL    HW117303   1.611   6.260   1.474
 3592SOL    HW217304   1.448   6.252   1.476
 3593SOL     OW17305   2.685   3.225   1.338
 3593SOL    HW117306   2.701   3.276   1.422
 3593SOL    HW217307   2.596   3.252   1.300
 3594SOL     OW17308   1.654   0.458   6.604
 3594SOL    HW117309   1.557   0.444   6.625
 3594SOL    HW217310   1.703   0.371   6.610
 3595SOL     OW17311   1.669   2.818   6.810
 3595SOL    HW117312   1.635   2.802   6.718
 3595SOL    HW217313   1.718   2.906   6.813
 3596SOL     OW17314   5.787   0.778   0.445
 3596SOL    HW117315   5.847   0.707   0.409
 3596SOL    HW217316   5.792   0.778   0.545
 3597SOL     OW17317   2.423   0.213   0.587
 3597SOL    HW117318   2.517   0.228   0.554
 3597SOL    HW217319   2.365   0.188   0.509
 3598SOL     OW17320   3.815   1.869   7.219
 3598SOL    HW117321   3.840   1.888   7.313
 3598SOL    HW217322   3.738   1.804   7.217
 3599SOL     OW17323   1.384   1.331   0.995
 3599SOL    HW117324   1.359   1.359   0.902
 3599SOL    HW217325   1.303   1.329   1.053
 3600SOL     OW17326   1.639   2.767   1.590
 3600SOL    HW117327   1.621   2.681   1.637
 3600SOL    HW217328   1.738   2.784   1.587
 3601SOL     OW17329   1.864   1.123   0.694
 3601SOL    HW117330   1.961   1.143   0.707
 3601SOL    HW217331   1.816   1.206   0.666
 3602SOL     OW17332   4.695   2.308   6.563
 3602SOL    HW117333   4.683   2.382   6.497
 3602SOL    HW217334   4.770   2.248   6.533
 3603SOL     OW17335   2.637   3.458   0.804
 3603SOL    HW117336   2.734   3.446   0.781
 3603SOL    HW217337   2.618   3.414   0.891
 3604SOL     OW17338   4.890   2.639   6.321
 3604SOL    HW117339   4.865   2.727   6.281
 3604SOL    HW217340   4.939   2.654   6.407
 3605SOL     OW17341   3.661   5.591   6.831
 3605SOL    HW117342   3.679   5.578   6.733
 3605SOL    HW217343   3.744   5.571   6.883
 3606SOL     OW17344   2.507   0.821   6.945
 3606SOL    HW117345   2.443   0.833   7.020
 3606SOL    HW217346   2.597   0.794   6.982
 3607SOL     OW17347   3.919   3.328   5.765
 3607SOL    HW117348   3.865   3.309   5.683
 3607SOL    HW217349   4.015   3.307   5.748
 3608SOL     OW17350   1.345   1.006   6.416
 3608SOL    HW117351   1.437   1.040   6.435
 3608SOL    HW217352   1.335   0.990   6.318
 3609SOL     OW17353   3.978   3.487   5.230
 3609SOL    HW117354   3.887   3.495   5.271
 3609SOL    HW217355   3.999   3.390   5.213
 3610SOL     OW17356   1.347   6.058   6.998
 3610SOL    HW117357   1.257   6.082   7.034
 3610SOL    HW217358   1.417   6.072   7.069
 3611SOL     OW17359   4.550   4.798   6.100
 3611SOL    HW117360   4.457   4.800   6.065
 3611SOL    HW217361   4.614   4.777   6.026
 3612SOL     OW17362   3.110   4.023   0.711
 3612SOL    HW117363   3.048   3.945   0.719
 3612SOL    HW217364   3.134   4.036   0.615
 3613SOL     OW17365   4.192   0.130   0.125
 3613SOL    HW117366   4.133   0.167   0.054
 3613SOL    HW217367   4.191   0.192   0.204
 3614SOL     OW17368   5.056   2.618   6.551
 3614SOL    HW117369   5.069   2.549   6.624
 3614SOL    HW217370   5.145   2.642   6.513
 3615SOL     OW17371   4.519   5.849   0.797
 3615SOL    HW117372   4.481   5.781   0.733
 3615SOL    HW217373   4.445   5.884   0.855
 3616SOL     OW17374   0.672   0.585   1.972
 3616SOL    HW117375   0.588   0.631   1.998
 3616SOL    HW217376   0.690   0.509   2.035
 3617SOL     OW17377   4.823   5.247   0.312
 3617SOL    HW117378   4.851   5.153   0.332
 3617SOL    HW217379   4.901   5.308   0.319
 3618SOL     OW17380   6.422   1.041   6.976
 3618SOL    HW117381   6.480   0.974   6.929
 3618SOL    HW217382   6.404   1.118   6.914
 3619SOL     OW17383   4.604   4.303   5.466
 3619SOL    HW117384   4.621   4.401   5.453
 3619SOL    HW217385   4.507   4.289   5.487
 3620SOL     OW17386   6.283   4.093   5.365
 3620SOL    HW117387   6.316   4.115   5.274
 3620SOL    HW217388   6.197   4.042   5.358
 3621SOL     OW17389   5.273   1.749   7.185
 3621SOL    HW117390   5.190   1.797   7.212
 3621SOL    HW217391   5.275   1.659   7.228
 3622SOL     OW17392   4.017   2.273   6.565
 3622SOL    HW117393   4.025   2.174   6.581
 3622SOL    HW217394   3.989   2.318   6.649
 3623SOL     OW17395   2.703   3.369   0.117
 3623SOL    HW117396   2.719   3.342   0.022
 3623SOL    HW217397   2.605   3.379   0.133
 3624SOL     OW17398   2.855   5.681   6.832
 3624SOL    HW117399   2.846   5.596   6.780
 3624SOL    HW217400   2.946   5.686   6.872
 3625SOL     OW17401   5.873   2.245   5.777
 3625SOL    HW117402   5.947   2.228   5.712
 3625SOL    HW217403   5.864   2.166   5.839
 3626SOL     OW17404   1.787   5.393   1.886
 3626SOL    HW117405   1.837   5.434   1.810
 3626SOL    HW217406   1.851   5.373   1.961
 3627SOL     OW17407   5.440   2.883   0.586
 3627SOL    HW117408   5.397   2.827   0.515
 3627SOL    HW217409   5.378   2.892   0.664
 3628SOL     OW17410   0.418   1.283   0.283
 3628SOL    HW117411   0.432   1.206   0.345
 3628SOL    HW217412   0.498   1.293   0.224
 3629SOL     OW17413   3.998   1.401   1.040
 3629SOL    HW117414   3.977   1.349   0.957
 3629SOL    HW217415   4.038   1.489   1.015
 3630SOL     OW17416   3.281   4.097   5.834
 3630SOL    HW117417   3.297   4.120   5.738
 3630SOL    HW217418   3.185   4.071   5.847
 3631SOL     OW17419   5.312   0.924   6.326
 3631SOL    HW117420   5.330   0.826   6.322
 3631SOL    HW217421   5.219   0.943   6.296
 3632SOL     OW17422   1.252   0.248   5.506
 3632SOL    HW117423   1.270   0.287   5.416
 3632SOL    HW217424   1.161   0.277   5.537
 3633SOL     OW17425   6.536   2.184   6.831
 3633SOL    HW117426   6.474   2.193   6.909
 3633SOL    HW217427   0.048   2.205   6.861
 3634SOL     OW17428   5.329   4.642   1.286
 3634SOL    HW117429   5.384   4.712   1.331
 3634SOL    HW217430   5.232   4.661   1.302
 3635SOL     OW17431   0.706   2.777   7.217
 3635SOL    HW117432   0.609   2.765   7.192
 3635SOL    HW217433   0.714   2.779   7.317
 3636SOL     OW17434   0.280   1.568   5.315
 3636SOL    HW117435   0.205   1.562   5.250
 3636SOL    HW217436   0.265   1.503   5.390
 3637SOL     OW17437   3.426   4.741   0.362
 3637SOL    HW117438   3.451   4.685   0.440
 3637SOL    HW217439   3.494   4.813   0.349
 3638SOL     OW17440   3.265   0.485   6.354
 3638SOL    HW117441   3.343   0.449   6.303
 3638SOL    HW217442   3.191   0.509   6.291
 3639SOL     OW17443   5.882   6.298   7.000
 3639SOL    HW117444   5.954   6.357   6.965
 3639SOL    HW217445   5.917   6.244   7.077
 3640SOL     OW17446   1.165   4.429   0.412
 3640SOL    HW117447   1.144   4.522   0.440
 3640SOL    HW217448   1.089   4.368   0.436
 3641SOL     OW17449   5.415   3.743   7.317
 3641SOL    HW117450   5.428   3.665   7.256
 3641SOL    HW217451   5.464   3.822   7.281
 3642SOL     OW17452   2.171   3.445   7.200
 3642SOL    HW117453   2.225   3.526   7.178
 3642SOL    HW217454   2.089   3.472   7.250
 3643SOL     OW17455   1.154   2.038   6.667
 3643SOL    HW117456   1.074   1.979   6.668
 3643SOL    HW217457   1.133   2.124   6.713
 3644SOL     OW17458   0.841   2.086   6.125
 3644SOL    HW117459   0.812   2.069   6.219
 3644SOL    HW217460   0.842   2.001   6.074
 3645SOL     OW17461   4.500   2.847   6.394
 3645SOL    HW117462   4.511   2.819   6.299
 3645SOL    HW217463   4.457   2.772   6.445
 3646SOL     OW17464   1.103   4.780   5.775
 3646SOL    HW117465   1.151   4.693   5.787
 3646SOL    HW217466   1.155   4.854   5.816
 3647SOL     OW17467   5.855   4.864   1.637
 3647SOL    HW117468   5.780   4.840   1.698
 3647SOL    HW217469   5.898   4.948   1.668
 3648SOL     OW17470   0.203   3.905   0.414
 3648SOL    HW117471   0.171   4.000   0.411
 3648SOL    HW217472   0.277   3.893   0.349
 3649SOL     OW17473   5.484   0.951   5.903
 3649SOL    HW117474   5.485   0.975   5.806
 3649SOL    HW217475   5.389   0.954   5.936
 3650SOL     OW17476   1.833   6.072   6.344
 3650SOL    HW117477   1.896   6.073   6.421
 3650SOL    HW217478   1.756   6.011   6.364
 3651SOL     OW17479   6.272   0.013   7.174
 3651SOL    HW117480   6.187   0.067   7.179
 3651SOL    HW217481   6.335   0.056   7.109
 3652SOL     OW17482   2.895   3.699   6.626
 3652SOL    HW117483   2.907   3.793   6.593
 3652SOL    HW217484   2.947   3.687   6.711
 3653SOL     OW17485   6.078   3.971   0.784
 3653SOL    HW117486   6.168   4.013   0.782
 3653SOL    HW217487   6.060   3.934   0.875
 3654SOL     OW17488   0.931   1.278   7.244
 3654SOL    HW117489   1.001   1.211   7.220
 3654SOL    HW217490   0.938   1.358   7.185
 3655SOL     OW17491   0.535   0.709   0.517
 3655SOL    HW117492   0.590   0.792   0.514
 3655SOL    HW217493   0.520   0.674   0.424
 3656SOL     OW17494   5.728   3.948   6.564
 3656SOL    HW117495   5.634   3.915   6.553
 3656SOL    HW217496   5.726   4.046   6.585
 3657SOL     OW17497   0.235   3.184   0.265
 3657SOL    HW117498   0.251   3.091   0.298
 3657SOL    HW217499   0.160   3.226   0.316
 3658SOL     OW17500   4.001   1.589   6.837
 3658SOL    HW117501   4.062   1.511   6.851
 3658SOL    HW217502   3.913   1.570   6.880
 3659SOL     OW17503   3.875   4.512   6.665
 3659SOL    HW117504   3.905   4.423   6.631
 3659SOL    HW217505   3.786   4.535   6.625
 3660SOL     OW17506   5.105   2.124   5.823
 3660SOL    HW117507   5.026   2.063   5.821
 3660SOL    HW217508   5.140   2.136   5.730
 3661SOL     OW17509   1.103   0.377   1.189
 3661SOL    HW117510   1.183   0.415   1.237
 3661SOL    HW217511   1.107   0.278   1.191
 3662SOL     OW17512   0.035   0.256   0.331
 3662SOL    HW117513   0.028   0.208   0.244
 3662SOL    HW217514   0.015   0.353   0.317
 3663SOL     OW17515   0.784   2.929   6.830
 3663SOL    HW117516   0.686   2.947   6.840
 3663SOL    HW217517   0.797   2.842   6.782
 3664SOL     OW17518   3.583   0.935   5.735
 3664SOL    HW117519   3.544   0.929   5.827
 3664SOL    HW217520   3.567   1.026   5.697
 3665SOL     OW17521   1.207   4.680   6.460
 3665SOL    HW117522   1.300   4.644   6.466
 3665SOL    HW217523   1.146   4.624   6.516
 3666SOL     OW17524   2.013   4.746   7.344
 3666SOL    HW117525   2.052   4.838   7.349
 3666SOL    HW217526   2.055   4.688   7.413
 3667SOL     OW17527   6.245   4.990   0.956
 3667SOL    HW117528   6.221   4.895   0.972
 3667SOL    HW217529   6.293   4.998   0.869
 3668SOL     OW17530   3.861   5.386   6.433
 3668SOL    HW117531   3.845   5.287   6.433
 3668SOL    HW217532   3.890   5.415   6.342
 3669SOL     OW17533   5.815   1.087   7.259
 3669SOL    HW117534   5.821   1.049   7.167
 3669SOL    HW217535   5.851   1.020   7.325
 3670SOL     OW17536   2.751   2.333   0.197
 3670SOL    HW117537   2.735   2.277   0.279
 3670SOL    HW217538   2.818   2.289   0.139
 3671SOL     OW17539   2.943   4.178   1.552
 3671SOL    HW117540   2.899   4.107   1.498
 3671SOL    HW217541   3.008   4.136   1.616
 3672SOL     OW17542   3.840   0.393   6.636
 3672SOL    HW117543   3.936   0.392   6.665
 3672SOL    HW217544   3.788   0.453   6.698
 3673SOL     OW17545   4.129   4.635   6.680
 3673SOL    HW117546   4.041   4.589   6.685
 3673SOL    HW217547   4.148   4.660   6.585
 3674SOL     OW17548   2.529   3.958   6.887
 3674SOL    HW117549   2.538   4.018   6.808
 3674SOL    HW217550   2.619   3.942   6.927
 3675SOL     OW17551   5.897   5.306   1.004
 3675SOL    HW117552   5.797   5.298   1.000
 3675SOL    HW217553   5.938   5.215   1.005
 3676SOL     OW17554   3.452   3.516   0.305
 3676SOL    HW117555   3.549   3.499   0.285
 3676SOL    HW217556   3.443   3.605   0.350
 3677SOL     OW17557   2.203   2.765   6.014
 3677SOL    HW117558   2.271   2.820   6.061
 3677SOL    HW217559   2.145   2.824   5.958
 3678SOL     OW17560   2.150   5.821   7.180
 3678SOL    HW117561   2.143   5.800   7.083
 3678SOL    HW217562   2.222   5.765   7.222
 3679SOL     OW17563   2.279   1.821   0.429
 3679SOL    HW117564   2.306   1.842   0.335
 3679SOL    HW217565   2.361   1.804   0.484
 3680SOL     OW17566   6.539   3.162   0.021
 3680SOL    HW117567   0.043   3.213   0.026
 3680SOL    HW217568   6.559   3.065   0.006
 3681SOL     OW17569   2.786   0.207   0.799
 3681SOL    HW117570   2.743   0.223   0.888
 3681SOL    HW217571   2.767   0.113   0.769
 3682SOL     OW17572   5.479   3.256   7.066
 3682SOL    HW117573   5.383   3.261   7.040
 3682SOL    HW217574   5.526   3.191   7.006
 3683SOL     OW17575   5.271   5.694   1.890
 3683SOL    HW117576   5.284   5.663   1.984
 3683SOL    HW217577   5.192   5.646   1.850
 3684SOL     OW17578   5.153   6.050   1.007
 3684SOL    HW117579   5.175   6.146   1.023
 3684SOL    HW217580   5.070   6.026   1.057
 3685SOL     OW17581   3.516   0.810   0.110
 3685SOL    HW117582   3.430   0.853   0.137
 3685SOL    HW217583   3.585   0.824   0.180
 3686SOL     OW17584   0.052   1.990   6.442
 3686SOL    HW117585   6.543   2.028   6.424
 3686SOL    HW217586   0.062   1.973   6.540
 3687SOL     OW17587   4.767   3.531   0.285
 3687SOL    HW117588   4.716   3.546   0.200
 3687SOL    HW217589   4.704   3.539   0.363
 3688SOL     OW17590   2.259   5.858   1.529
 3688SOL    HW117591   2.294   5.906   1.610
 3688SOL    HW217592   2.200   5.782   1.558
 3689SOL     OW17593   4.534   2.059   6.553
 3689SOL    HW117594   4.608   2.003   6.516
 3689SOL    HW217595   4.570   2.145   6.588
 3690SOL     OW17596   5.236   0.310   0.179
 3690SOL    HW117597   5.303   0.371   0.222
 3690SOL    HW217598   5.154   0.362   0.155
 3691SOL     OW17599   5.546   4.598   0.104
 3691SOL    HW117600   5.585   4.509   0.079
 3691SOL    HW217601   5.620   4.661   0.126
 3692SOL     OW17602   0.765   3.948   0.064
 3692SOL    HW117603   0.857   3.921   0.038
 3692SOL    HW217604   0.704   3.942   7.399
 3693SOL     OW17605   0.713   2.204   0.959
 3693SOL    HW117606   0.811   2.187   0.950
 3693SOL    HW217607   0.686   2.281   0.901
 3694SOL     OW17608   5.111   3.085   0.659
 3694SOL    HW117609   5.168   3.022   0.712
 3694SOL    HW217610   5.086   3.042   0.572
 3695SOL     OW17611   4.899   1.539   0.954
 3695SOL    HW117612   4.965   1.465   0.965
 3695SOL    HW217613   4.923   1.615   1.014
 3696SOL     OW17614   3.800   4.445   1.073
 3696SOL    HW117615   3.712   4.431   1.027
 3696SOL    HW217616   3.799   4.534   1.119
 3697SOL     OW17617   0.160   3.257   1.003
 3697SOL    HW117618   0.193   3.171   0.964
 3697SOL    HW217619   0.226   3.291   1.070
 3698SOL     OW17620   1.869   4.738   6.708
 3698SOL    HW117621   1.886   4.640   6.715
 3698SOL    HW217622   1.771   4.755   6.703
 3699SOL     OW17623   2.414   2.894   6.130
 3699SOL    HW117624   2.435   2.988   6.158
 3699SOL    HW217625   2.488   2.858   6.074
 3700SOL     OW17626   0.725   2.080   6.813
 3700SOL    HW117627   0.691   1.994   6.777
 3700SOL    HW217628   0.675   2.157   6.773
 3701SOL     OW17629   2.318   1.839   6.392
 3701SOL    HW117630   2.245   1.774   6.376
 3701SOL    HW217631   2.280   1.924   6.429
 3702SOL     OW17632   0.948   5.766   0.011
 3702SOL    HW117633   1.047   5.751   0.017
 3702SOL    HW217634   0.907   5.700   7.363
 3703SOL     OW17635   2.397   0.149   1.033
 3703SOL    HW117636   2.300   0.133   1.047
 3703SOL    HW217637   2.426   0.108   0.946
 3704SOL     OW17638   3.212   5.605   1.152
 3704SOL    HW117639   3.167   5.689   1.183
 3704SOL    HW217640   3.204   5.535   1.223
 3705SOL     OW17641   1.904   5.693   6.046
 3705SOL    HW117642   1.970   5.645   5.988
 3705SOL    HW217643   1.952   5.765   6.097
 3706SOL     OW17644   5.780   3.053   0.949
 3706SOL    HW117645   5.745   3.011   0.865
 3706SOL    HW217646   5.735   3.140   0.964
 3707SOL     OW17647   2.760   5.511   0.428
 3707SOL    HW117648   2.782   5.414   0.416
 3707SOL    HW217649   2.687   5.537   0.365
 3708SOL     OW17650   2.634   5.175   6.940
 3708SOL    HW117651   2.574   5.133   7.008
 3708SOL    HW217652   2.676   5.257   6.979
 3709SOL     OW17653   1.669   3.791   6.217
 3709SOL    HW117654   1.745   3.769   6.155
 3709SOL    HW217655   1.705   3.836   6.299
 3710SOL     OW17656   0.959   1.951   0.383
 3710SOL    HW117657   1.048   1.987   0.352
 3710SOL    HW217658   0.900   1.935   0.304
 3711SOL     OW17659   0.926   1.643   5.501
 3711SOL    HW117660   1.023   1.626   5.516
 3711SOL    HW217661   0.911   1.674   5.407
 3712SOL     OW17662   0.919   0.701   7.351
 3712SOL    HW117663   0.947   0.796   7.365
 3712SOL    HW217664   0.998   0.648   7.320
 3713SOL     OW17665   3.702   1.356   7.374
 3713SOL    HW117666   3.785   1.405   7.399
 3713SOL    HW217667   3.645   1.342   0.041
 3714SOL     OW17668   0.357   6.100   1.515
 3714SOL    HW117669   0.259   6.090   1.535
 3714SOL    HW217670   0.405   6.129   1.597
 3715SOL     OW17671   3.352   4.497   6.318
 3715SOL    HW117672   3.430   4.439   6.295
 3715SOL    HW217673   3.379   4.593   6.314
 3716SOL     OW17674   5.989   3.009   6.335
 3716SOL    HW117675   6.082   3.039   6.314
 3716SOL    HW217676   5.949   2.963   6.255
 3717SOL     OW17677   4.178   0.602   4.962
 3717SOL    HW117678   4.273   0.612   4.992
 3717SOL    HW217679   4.166   0.513   4.920
 3718SOL     OW17680   5.437   4.474   6.025
 3718SOL    HW117681   5.523   4.424   6.032
 3718SOL    HW217682   5.441   4.535   5.946
 3719SOL     OW17683   6.455   3.602   0.799
 3719SOL    HW117684   6.394   3.573   0.873
 3719SOL    HW217685   6.547   3.569   0.817
 3720SOL     OW17686   0.024   1.935   6.725
 3720SOL    HW117687   0.113   1.916   6.765
 3720SOL    HW217688   6.572   2.023   6.759
 3721SOL     OW17689   6.036   3.049   5.294
 3721SOL    HW117690   5.952   3.103   5.301
 3721SOL    HW217691   6.114   3.105   5.320
 3722SOL     OW17692   3.524   4.275   6.262
 3722SOL    HW117693   3.505   4.250   6.166
 3722SOL    HW217694   3.622   4.278   6.277
 3723SOL     OW17695   1.431   2.175   6.071
 3723SOL    HW117696   1.522   2.133   6.078
 3723SOL    HW217697   1.361   2.106   6.089
 3724SOL     OW17698   1.281   5.071   0.851
 3724SOL    HW117699   1.264   5.144   0.917
 3724SOL    HW217700   1.364   5.092   0.799
 3725SOL     OW17701   3.928   5.673   7.278
 3725SOL    HW117702   3.839   5.708   7.307
 3725SOL    HW217703   3.996   5.746   7.280
 3726SOL     OW17704   1.781   0.267   1.601
 3726SOL    HW117705   1.742   0.356   1.579
 3726SOL    HW217706   1.854   0.278   1.668
 3727SOL     OW17707   4.081   2.362   0.650
 3727SOL    HW117708   4.120   2.451   0.676
 3727SOL    HW217709   4.111   2.292   0.715
 3728SOL     OW17710   1.212   4.157   7.215
 3728SOL    HW117711   1.168   4.131   7.301
 3728SOL    HW217712   1.286   4.221   7.234
 3729SOL     OW17713   3.200   5.206   0.348
 3729SOL    HW117714   3.139   5.263   0.294
 3729SOL    HW217715   3.176   5.214   0.445
 3730SOL     OW17716   0.520   5.866   0.588
 3730SOL    HW117717   0.502   5.813   0.671
 3730SOL    HW217718   0.452   5.939   0.579
 3731SOL     OW17719   2.705   2.469   1.670
 3731SOL    HW117720   2.792   2.517   1.673
 3731SOL    HW217721   2.633   2.526   1.709
 3732SOL     OW17722   1.595   3.098   0.123
 3732SOL    HW117723   1.535   3.144   0.189
 3732SOL    HW217724   1.565   3.003   0.111
 3733SOL     OW17725   5.205   5.965   6.714
 3733SOL    HW117726   5.181   5.884   6.766
 3733SOL    HW217727   5.127   5.992   6.657
 3734SOL     OW17728   1.084   1.720   5.942
 3734SOL    HW117729   1.168   1.753   5.900
 3734SOL    HW217730   1.101   1.695   6.037
 3735SOL     OW17731   2.240   0.778   1.385
 3735SOL    HW117732   2.176   0.776   1.463
 3735SOL    HW217733   2.289   0.691   1.380
 3736SOL     OW17734   2.151   2.983   1.008
 3736SOL    HW117735   2.120   2.987   1.104
 3736SOL    HW217736   2.202   2.899   0.993
 3737SOL     OW17737   0.687   1.782   5.555
 3737SOL    HW117738   0.780   1.746   5.546
 3737SOL    HW217739   0.627   1.737   5.490
 3738SOL     OW17740   6.264   0.062   5.624
 3738SOL    HW117741   6.314   0.148   5.610
 3738SOL    HW217742   6.270   0.006   5.542
 3739SOL     OW17743   3.636   0.723   6.470
 3739SOL    HW117744   3.661   0.755   6.379
 3739SOL    HW217745   3.536   0.722   6.479
 3740SOL     OW17746   4.167   1.815   7.280
 3740SOL    HW117747   4.158   1.716   7.284
 3740SOL    HW217748   4.116   1.856   7.356
 3741SOL     OW17749   1.552   5.927   0.280
 3741SOL    HW117750   1.634   5.978   0.305
 3741SOL    HW217751   1.572   5.867   0.203
 3742SOL     OW17752   3.047   4.837   6.267
 3742SOL    HW117753   3.141   4.872   6.261
 3742SOL    HW217754   2.992   4.899   6.322
 3743SOL     OW17755   3.190   5.940   7.004
 3743SOL    HW117756   3.280   5.983   7.014
 3743SOL    HW217757   3.137   5.990   6.935
 3744SOL     OW17758   4.958   1.500   7.284
 3744SOL    HW117759   4.933   1.473   7.191
 3744SOL    HW217760   5.057   1.509   7.291
 3745SOL     OW17761   4.955   4.398   0.983
 3745SOL    HW117762   4.990   4.406   1.077
 3745SOL    HW217763   4.979   4.308   0.946
 3746SOL     OW17764   2.136   1.542   6.086
 3746SOL    HW117765   2.149   1.448   6.054
 3746SOL    HW217766   2.050   1.578   6.050
 3747SOL     OW17767   1.476   4.565   6.026
 3747SOL    HW117768   1.554   4.542   5.967
 3747SOL    HW217769   1.505   4.634   6.093
 3748SOL     OW17770   1.460   4.717   5.203
 3748SOL    HW117771   1.480   4.620   5.214
 3748SOL    HW217772   1.405   4.731   5.121
 3749SOL     OW17773   6.153   5.502   6.823
 3749SOL    HW117774   6.193   5.445   6.751
 3749SOL    HW217775   6.174   5.463   6.913
 3750SOL     OW17776   4.243   5.413   5.652
 3750SOL    HW117777   4.153   5.404   5.609
 3750SOL    HW217778   4.294   5.485   5.605
 3751SOL     OW17779   5.324   1.090   5.048
 3751SOL    HW117780   5.386   1.022   5.088
 3751SOL    HW217781   5.377   1.155   4.993
 3752SOL     OW17782   5.758   0.942   5.921
 3752SOL    HW117783   5.658   0.933   5.921
 3752SOL    HW217784   5.783   1.037   5.940
 3753SOL     OW17785   3.464   6.069   0.326
 3753SOL    HW117786   3.491   6.125   0.405
 3753SOL    HW217787   3.434   5.979   0.358
 3754SOL     OW17788   3.618   4.435   7.101
 3754SOL    HW117789   3.637   4.337   7.112
 3754SOL    HW217790   3.686   4.475   7.039
 3755SOL     OW17791   3.347   1.576   5.527
 3755SOL    HW117792   3.421   1.622   5.477
 3755SOL    HW217793   3.259   1.602   5.488
 3756SOL     OW17794   0.955   0.732   1.042
 3756SOL    HW117795   0.940   0.819   1.087
 3756SOL    HW217796   0.913   0.658   1.095
 3757SOL     OW17797   1.760   5.165   0.838
 3757SOL    HW117798   1.790   5.201   0.750
 3757SOL    HW217799   1.767   5.065   0.837
 3758SOL     OW17800   6.112   4.436   7.148
 3758SOL    HW117801   6.097   4.470   7.055
 3758SOL    HW217802   6.195   4.379   7.150
 3759SOL     OW17803   3.971   0.183   7.368
 3759SOL    HW117804   3.969   0.177   7.268
 3759SOL    HW217805   3.952   0.093   7.407
 3760SOL     OW17806   3.225   2.410   6.731
 3760SOL    HW117807   3.293   2.474   6.767
 3760SOL    HW217808   3.161   2.459   6.672
 3761SOL     OW17809   0.292   2.920   5.935
 3761SOL    HW117810   0.278   3.002   5.880
 3761SOL    HW217811   0.204   2.873   5.947
 3762SOL     OW17812   5.186   2.509   5.221
 3762SOL    HW117813   5.199   2.436   5.288
 3762SOL    HW217814   5.267   2.568   5.221
 3763SOL     OW17815   3.686   5.774   7.358
 3763SOL    HW117816   3.710   5.866   7.388
 3763SOL    HW217817   3.663   5.718   0.024
 3764SOL     OW17818   1.570   3.959   6.992
 3764SOL    HW117819   1.559   3.899   6.913
 3764SOL    HW217820   1.648   3.927   7.046
 3765SOL     OW17821   5.381   0.682   0.654
 3765SOL    HW117822   5.367   0.775   0.622
 3765SOL    HW217823   5.458   0.641   0.605
 3766SOL     OW17824   6.134   1.460   1.612
 3766SOL    HW117825   6.165   1.380   1.663
 3766SOL    HW217826   6.186   1.468   1.527
 3767SOL     OW17827   3.969   3.192   5.465
 3767SOL    HW117828   3.884   3.241   5.484
 3767SOL    HW217829   4.000   3.213   5.373
 3768SOL     OW17830   6.233   4.970   6.205
 3768SOL    HW117831   6.183   5.055   6.194
 3768SOL    HW217832   6.256   4.958   6.302
 3769SOL     OW17833   5.469   4.468   1.478
 3769SOL    HW117834   5.553   4.505   1.438
 3769SOL    HW217835   5.392   4.487   1.418
 3770SOL     OW17836   3.985   6.415   0.086
 3770SOL    HW117837   3.979   6.318   0.111
 3770SOL    HW217838   4.070   6.454   0.122
 3771SOL     OW17839   0.158   3.276   7.147
 3771SOL    HW117840   0.058   3.267   7.141
 3771SOL    HW217841   0.186   3.276   7.243
 3772SOL     OW17842   4.581   4.491   7.162
 3772SOL    HW117843   4.538   4.489   7.071
 3772SOL    HW217844   4.526   4.548   7.223
 3773SOL     OW17845   2.423   6.013   7.229
 3773SOL    HW117846   2.371   6.018   7.144
 3773SOL    HW217847   2.360   6.010   7.307
 3774SOL     OW17848   3.564   1.013   7.346
 3774SOL    HW117849   3.546   0.940   7.412
 3774SOL    HW217850   3.646   1.063   7.373
 3775SOL     OW17851   4.822   4.587   6.816
 3775SOL    HW117852   4.730   4.624   6.804
 3775SOL    HW217853   4.880   4.656   6.860
 3776SOL     OW17854   2.026   2.578   6.101
 3776SOL    HW117855   2.089   2.646   6.063
 3776SOL    HW217856   2.032   2.579   6.201
 3777SOL     OW17857   4.655   0.204   0.728
 3777SOL    HW117858   4.642   0.239   0.821
 3777SOL    HW217859   4.650   0.280   0.663
 3778SOL     OW17860   6.580   3.327   6.261
 3778SOL    HW117861   6.487   3.340   6.226
 3778SOL    HW217862   6.575   3.296   6.356
 3779SOL     OW17863   6.394   0.868   0.236
 3779SOL    HW117864   6.416   0.865   0.333
 3779SOL    HW217865   6.451   0.936   0.190
 3780SOL     OW17866   4.061   2.671   6.381
 3780SOL    HW117867   4.146   2.633   6.346
 3780SOL    HW217868   4.043   2.759   6.337
 3781SOL     OW17869   2.494   0.545   1.059
 3781SOL    HW117870   2.536   0.627   1.097
 3781SOL    HW217871   2.496   0.472   1.127
 3782SOL     OW17872   6.032   3.044   7.018
 3782SOL    HW117873   6.031   2.967   6.955
 3782SOL    HW217874   5.949   3.042   7.075
 3783SOL     OW17875   4.774   2.363   1.385
 3783SOL    HW117876   4.675   2.370   1.400
 3783SOL    HW217877   4.818   2.329   1.468
 3784SOL     OW17878   6.160   4.740   0.992
 3784SOL    HW117879   6.081   4.704   1.043
 3784SOL    HW217880   6.216   4.664   0.960
 3785SOL     OW17881   5.507   5.895   6.061
 3785SOL    HW117882   5.606   5.904   6.070
 3785SOL    HW217883   5.469   5.860   6.147
 3786SOL     OW17884   5.040   2.279   0.663
 3786SOL    HW117885   5.095   2.196   0.656
 3786SOL    HW217886   4.951   2.256   0.704
 3787SOL     OW17887   5.051   2.478   5.942
 3787SOL    HW117888   5.130   2.455   5.885
 3787SOL    HW217889   4.989   2.399   5.946
 3788SOL     OW17890   4.837   0.712   5.161
 3788SOL    HW117891   4.740   0.733   5.155
 3788SOL    HW217892   4.879   0.724   5.071
 3789SOL     OW17893   2.711   2.179   1.120
 3789SOL    HW117894   2.725   2.275   1.096
 3789SOL    HW217895   2.637   2.172   1.187
 3790SOL     OW17896   2.289   4.184   6.721
 3790SOL    HW117897   2.378   4.150   6.693
 3790SOL    HW217898   2.221   4.110   6.715
 3791SOL     OW17899   2.694   4.382   0.116
 3791SOL    HW117900   2.750   4.465   0.120
 3791SOL    HW217901   2.752   4.302   0.132
 3792SOL     OW17902   3.556   5.436   6.317
 3792SOL    HW117903   3.640   5.477   6.353
 3792SOL    HW217904   3.577   5.347   6.277
 3793SOL     OW17905   2.889   1.375   6.193
 3793SOL    HW117906   2.840   1.463   6.199
 3793SOL    HW217907   2.929   1.353   6.282
 3794SOL     OW17908   0.576   5.424   6.979
 3794SOL    HW117909   0.621   5.357   7.039
 3794SOL    HW217910   0.486   5.391   6.953
 3795SOL     OW17911   3.629   3.876   1.727
 3795SOL    HW117912   3.692   3.953   1.732
 3795SOL    HW217913   3.543   3.900   1.772
 3796SOL     OW17914   3.607   5.856   6.260
 3796SOL    HW117915   3.694   5.834   6.216
 3796SOL    HW217916   3.584   5.952   6.243
 3797SOL     OW17917   3.945   0.830   7.364
 3797SOL    HW117918   3.914   0.880   7.283
 3797SOL    HW217919   4.003   0.890   0.005
 3798SOL     OW17920   3.526   2.477   7.377
 3798SOL    HW117921   3.586   2.552   7.406
 3798SOL    HW217922   3.431   2.500   7.400
 3799SOL     OW17923   2.690   0.279   0.550
 3799SOL    HW117924   2.738   0.229   0.476
 3799SOL    HW217925   2.730   0.253   0.638
 3800SOL     OW17926   2.823   4.377   1.405
 3800SOL    HW117927   2.745   4.406   1.460
 3800SOL    HW217928   2.877   4.309   1.456
 3801SOL     OW17929   2.112   3.977   6.690
 3801SOL    HW117930   2.190   3.915   6.688
 3801SOL    HW217931   2.039   3.935   6.745
 3802SOL     OW17932   3.322   4.409   0.680
 3802SOL    HW117933   3.289   4.466   0.756
 3802SOL    HW217934   3.244   4.370   0.632
 3803SOL     OW17935   0.850   4.482   5.771
 3803SOL    HW117936   0.843   4.517   5.864
 3803SOL    HW217937   0.824   4.553   5.706
 3804SOL     OW17938   2.773   4.051   0.742
 3804SOL    HW117939   2.684   4.013   0.713
 3804SOL    HW217940   2.839   3.976   0.752
 3805SOL     OW17941   1.774   4.048   2.054
 3805SOL    HW117942   1.735   4.039   2.145
 3805SOL    HW217943   1.787   3.957   2.014
 3806SOL     OW17944   4.666   3.516   0.748
 3806SOL    HW117945   4.635   3.608   0.770
 3806SOL    HW217946   4.766   3.515   0.745
 3807SOL     OW17947   0.492   6.348   6.365
 3807SOL    HW117948   0.447   6.424   6.317
 3807SOL    HW217949   0.591   6.355   6.353
 3808SOL     OW17950   3.710   0.842   0.296
 3808SOL    HW117951   3.733   0.938   0.316
 3808SOL    HW217952   3.793   0.788   0.291
 3809SOL     OW17953   3.417   0.879   0.795
 3809SOL    HW117954   3.345   0.865   0.727
 3809SOL    HW217955   3.382   0.859   0.886
 3810SOL     OW17956   3.188   2.441   1.548
 3810SOL    HW117957   3.123   2.499   1.499
 3810SOL    HW217958   3.161   2.434   1.643
 3811SOL     OW17959   3.360   4.566   6.596
 3811SOL    HW117960   3.374   4.664   6.608
 3811SOL    HW217961   3.329   4.547   6.503
 3812SOL     OW17962   3.061   3.405   6.580
 3812SOL    HW117963   2.965   3.378   6.587
 3812SOL    HW217964   3.107   3.346   6.513
 3813SOL     OW17965   5.460   4.838   1.436
 3813SOL    HW117966   5.447   4.812   1.532
 3813SOL    HW217967   5.557   4.853   1.419
 3814SOL     OW17968   6.320   6.042   5.767
 3814SOL    HW117969   6.338   6.032   5.669
 3814SOL    HW217970   6.385   6.107   5.807
 3815SOL     OW17971   5.559   4.188   7.050
 3815SOL    HW117972   5.652   4.165   7.019
 3815SOL    HW217973   5.558   4.282   7.083
 3816SOL     OW17974   2.615   4.423   1.582
 3816SOL    HW117975   2.662   4.365   1.649
 3816SOL    HW217976   2.546   4.477   1.629
 3817SOL     OW17977   0.003   5.648   5.557
 3817SOL    HW117978   0.084   5.605   5.598
 3817SOL    HW217979   0.019   5.660   5.459
 3818SOL     OW17980   2.407   4.012   6.220
 3818SOL    HW117981   2.398   4.102   6.263
 3818SOL    HW217982   2.356   3.945   6.274
 3819SOL     OW17983   6.267   3.199   5.645
 3819SOL    HW117984   6.235   3.213   5.551
 3819SOL    HW217985   6.319   3.114   5.650
 3820SOL     OW17986   2.194   5.441   0.693
 3820SOL    HW117987   2.152   5.357   0.659
 3820SOL    HW217988   2.183   5.446   0.792
 3821SOL     OW17989   1.513   4.609   0.284
 3821SOL    HW117990   1.531   4.704   0.309
 3821SOL    HW217991   1.444   4.606   0.211
 3822SOL     OW17992   0.904   2.475   5.692
 3822SOL    HW117993   0.867   2.541   5.627
 3822SOL    HW217994   0.898   2.512   5.785
 3823SOL     OW17995   0.740   6.385   6.064
 3823SOL    HW117996   0.753   6.287   6.045
 3823SOL    HW217997   0.753   6.401   6.162
 3824SOL     OW17998   5.335   3.571   5.976
 3824SOL    HW117999   5.306   3.636   5.906
 3824SOL    HW218000   5.305   3.479   5.951
 3825SOL     OW18001   1.677   1.714   5.850
 3825SOL    HW118002   1.624   1.751   5.926
 3825SOL    HW218003   1.676   1.778   5.774
 3826SOL     OW18004   6.248   2.858   5.109
 3826SOL    HW118005   6.152   2.867   5.081
 3826SOL    HW218006   6.271   2.761   5.114
 3827SOL     OW18007   1.825   6.470   0.331
 3827SOL    HW118008   1.850   0.084   0.295
 3827SOL    HW218009   1.746   0.003   0.391
 3828SOL     OW18010   2.109   4.019   1.129
 3828SOL    HW118011   2.143   3.945   1.187
 3828SOL    HW218012   2.143   4.007   1.036
 3829SOL     OW18013   2.542   4.106   5.827
 3829SOL    HW118014   2.627   4.069   5.864
 3829SOL    HW218015   2.550   4.116   5.728
 3830SOL     OW18016   2.720   6.170   0.926
 3830SOL    HW118017   2.794   6.183   0.859
 3830SOL    HW218018   2.738   6.226   1.006
 3831SOL     OW18019   3.095   6.161   0.420
 3831SOL    HW118020   3.087   6.095   0.495
 3831SOL    HW218021   3.102   6.112   0.333
 3832SOL     OW18022   0.515   6.400   5.914
 3832SOL    HW118023   0.600   6.392   5.965
 3832SOL    HW218024   0.531   6.379   5.818
 3833SOL     OW18025   2.665   3.550   6.582
 3833SOL    HW118026   2.677   3.493   6.500
 3833SOL    HW218027   2.749   3.601   6.600
 3834SOL     OW18028   2.772   5.167   1.450
 3834SOL    HW118029   2.773   5.251   1.504
 3834SOL    HW218030   2.717   5.097   1.497
 3835SOL     OW18031   5.253   5.546   6.323
 3835SOL    HW118032   5.234   5.563   6.226
 3835SOL    HW218033   5.344   5.506   6.333
 3836SOL     OW18034   1.854   0.865   7.101
 3836SOL    HW118035   1.827   0.962   7.103
 3836SOL    HW218036   1.827   0.820   7.186
 3837SOL     OW18037   4.086   5.935   1.453
 3837SOL    HW118038   4.039   5.950   1.540
 3837SOL    HW218039   4.048   5.995   1.383
 3838SOL     OW18040   3.567   0.632   0.410
 3838SOL    HW118041   3.610   0.720   0.389
 3838SOL    HW218042   3.564   0.575   0.328
 3839SOL     OW18043   1.099   4.951   5.241
 3839SOL    HW118044   1.178   4.990   5.194
 3839SOL    HW218045   1.042   4.900   5.176
 3840SOL     OW18046   0.755   5.035   5.046
 3840SOL    HW118047   0.726   5.119   5.000
 3840SOL    HW218048   0.686   5.007   5.113
 3841SOL     OW18049   3.259   1.239   6.819
 3841SOL    HW118050   3.329   1.299   6.857
 3841SOL    HW218051   3.171   1.285   6.820
 3842SOL     OW18052   0.045   6.145   6.675
 3842SOL    HW118053   6.544   6.157   6.730
 3842SOL    HW218054   0.071   6.232   6.634
 3843SOL     OW18055   2.003   1.557   0.126
 3843SOL    HW118056   1.948   1.537   0.045
 3843SOL    HW218057   2.093   1.592   0.097
 3844SOL     OW18058   1.614   5.508   1.384
 3844SOL    HW118059   1.546   5.535   1.453
 3844SOL    HW218060   1.567   5.484   1.299
 3845SOL     OW18061   0.730   0.254   1.192
 3845SOL    HW118062   0.720   0.156   1.206
 3845SOL    HW218063   0.639   0.295   1.177
 3846SOL     OW18064   1.648   1.264   1.041
 3846SOL    HW118065   1.554   1.286   1.015
 3846SOL    HW218066   1.675   1.319   1.120
 3847SOL     OW18067   2.787   4.973   0.356
 3847SOL    HW118068   2.700   4.976   0.308
 3847SOL    HW218069   2.855   4.926   0.299
 3848SOL     OW18070   1.169   4.194   1.312
 3848SOL    HW118071   1.088   4.159   1.266
 3848SOL    HW218072   1.171   4.160   1.406
 3849SOL     OW18073   5.642   3.975   6.077
 3849SOL    HW118074   5.690   3.943   5.995
 3849SOL    HW218075   5.705   3.972   6.155
 3850SOL     OW18076   2.946   1.846   5.818
 3850SOL    HW118077   2.893   1.780   5.765
 3850SOL    HW218078   2.919   1.841   5.915
 3851SOL     OW18079   5.173   2.715   7.071
 3851SOL    HW118080   5.194   2.764   7.156
 3851SOL    HW218081   5.085   2.745   7.036
 3852SOL     OW18082   0.902   0.253   0.464
 3852SOL    HW118083   0.868   0.278   0.554
 3852SOL    HW218084   0.826   0.248   0.400
 3853SOL     OW18085   6.029   4.907   5.209
 3853SOL    HW118086   6.049   4.980   5.143
 3853SOL    HW218087   5.930   4.904   5.226
 3854SOL     OW18088   2.665   2.018   0.896
 3854SOL    HW118089   2.735   1.947   0.908
 3854SOL    HW218090   2.669   2.081   0.973
 3855SOL     OW18091   3.014   0.393   7.038
 3855SOL    HW118092   2.942   0.413   6.972
 3855SOL    HW218093   3.062   0.477   7.062
 3856SOL     OW18094   5.508   5.437   0.280
 3856SOL    HW118095   5.516   5.391   0.368
 3856SOL    HW218096   5.447   5.516   0.288
 3857SOL     OW18097   5.064   5.379   0.344
 3857SOL    HW118098   5.051   5.478   0.344
 3857SOL    HW218099   5.128   5.354   0.416
 3858SOL     OW18100   2.711   5.829   1.579
 3858SOL    HW118101   2.690   5.919   1.615
 3858SOL    HW218102   2.702   5.761   1.652
 3859SOL     OW18103   4.465   6.269   0.927
 3859SOL    HW118104   4.378   6.313   0.951
 3859SOL    HW218105   4.540   6.317   0.974
 3860SOL     OW18106   2.361   4.926   6.375
 3860SOL    HW118107   2.354   4.907   6.277
 3860SOL    HW218108   2.300   4.864   6.425
 3861SOL     OW18109   6.028   5.924   1.889
 3861SOL    HW118110   5.936   5.959   1.870
 3861SOL    HW218111   6.030   5.825   1.875
 3862SOL     OW18112   3.274   0.368   5.434
 3862SOL    HW118113   3.223   0.333   5.357
 3862SOL    HW218114   3.304   0.462   5.415
 3863SOL     OW18115   5.020   2.472   1.670
 3863SOL    HW118116   5.103   2.459   1.724
 3863SOL    HW218117   4.989   2.384   1.635
 3864SOL     OW18118   6.027   6.028   6.458
 3864SOL    HW118119   6.091   5.996   6.528
 3864SOL    HW218120   5.985   6.114   6.487
 3865SOL     OW18121   3.293   4.723   1.197
 3865SOL    HW118122   3.227   4.655   1.162
 3865SOL    HW218123   3.291   4.722   1.297
 3866SOL     OW18124   0.086   2.740   0.406
 3866SOL    HW118125   0.018   2.729   0.334
 3866SOL    HW218126   0.086   2.659   0.464
 3867SOL     OW18127   0.869   4.638   0.552
 3867SOL    HW118128   0.968   4.647   0.543
 3867SOL    HW218129   0.824   4.692   0.480
 3868SOL     OW18130   2.757   5.594   7.273
 3868SOL    HW118131   2.697   5.671   7.252
 3868SOL    HW218132   2.852   5.626   7.278
 3869SOL     OW18133   0.406   5.854   6.945
 3869SOL    HW118134   0.355   5.894   6.869
 3869SOL    HW218135   0.482   5.800   6.910
 3870SOL     OW18136   2.035   1.087   6.769
 3870SOL    HW118137   2.081   1.019   6.713
 3870SOL    HW218138   2.047   1.065   6.866
 3871SOL     OW18139   5.685   4.996   7.246
 3871SOL    HW118140   5.585   5.003   7.242
 3871SOL    HW218141   5.725   5.083   7.221
 3872SOL     OW18142   5.337   1.756   0.856
 3872SOL    HW118143   5.431   1.741   0.885
 3872SOL    HW218144   5.312   1.851   0.872
 3873SOL     OW18145   0.339   1.979   6.444
 3873SOL    HW118146   0.398   2.016   6.373
 3873SOL    HW218147   0.243   1.989   6.417
 3874SOL     OW18148   4.712   4.226   0.301
 3874SOL    HW118149   4.749   4.232   0.208
 3874SOL    HW218150   4.614   4.245   0.299
 3875SOL     OW18151   1.522   0.203   5.298
 3875SOL    HW118152   1.480   0.117   5.328
 3875SOL    HW218153   1.450   0.269   5.277
 3876SOL     OW18154   4.666   1.793   0.625
 3876SOL    HW118155   4.708   1.830   0.542
 3876SOL    HW218156   4.683   1.856   0.701
 3877SOL     OW18157   2.555   4.487   0.345
 3877SOL    HW118158   2.628   4.511   0.409
 3877SOL    HW218159   2.595   4.453   0.260
 3878SOL     OW18160   3.755   5.205   6.797
 3878SOL    HW118161   3.686   5.230   6.729
 3878SOL    HW218162   3.801   5.121   6.770
 3879SOL     OW18163   6.193   0.606   0.285
 3879SOL    HW118164   6.216   0.522   0.333
 3879SOL    HW218165   6.240   0.683   0.328
 3880SOL     OW18166   1.359   1.953   6.856
 3880SOL    HW118167   1.425   1.898   6.804
 3880SOL    HW218168   1.290   1.989   6.794
 3881SOL     OW18169   3.861   5.815   6.592
 3881SOL    HW118170   3.937   5.837   6.531
 3881SOL    HW218171   3.808   5.898   6.611
 3882SOL     OW18172   1.240   3.152   1.416
 3882SOL    HW118173   1.150   3.146   1.373
 3882SOL    HW218174   1.229   3.182   1.511
 3883SOL     OW18175   3.668   1.981   1.252
 3883SOL    HW118176   3.652   2.057   1.190
 3883SOL    HW218177   3.590   1.972   1.314
 3884SOL     OW18178   0.818   5.010   0.568
 3884SOL    HW118179   0.729   5.052   0.549
 3884SOL    HW218180   0.890   5.080   0.560
 3885SOL     OW18181   5.094   5.216   1.596
 3885SOL    HW118182   5.168   5.271   1.556
 3885SOL    HW218183   5.025   5.277   1.635
 3886SOL     OW18184   4.876   6.201   5.752
 3886SOL    HW118185   4.836   6.195   5.661
 3886SOL    HW218186   4.965   6.248   5.747
 3887SOL     OW18187   6.107   1.874   5.789
 3887SOL    HW118188   6.061   1.793   5.753
 3887SOL    HW218189   6.160   1.917   5.716
 3888SOL     OW18190   0.770   0.599   0.146
 3888SOL    HW118191   0.819   0.636   0.067
 3888SOL    HW218192   0.824   0.614   0.229
 3889SOL     OW18193   3.457   1.035   1.445
 3889SOL    HW118194   3.529   1.102   1.466
 3889SOL    HW218195   3.475   0.951   1.495
 3890SOL     OW18196   1.469   5.664   7.323
 3890SOL    HW118197   1.482   5.670   7.224
 3890SOL    HW218198   1.538   5.718   7.370
 3891SOL     OW18199   5.414   5.029   7.317
 3891SOL    HW118200   5.426   5.103   7.383
 3891SOL    HW218201   5.394   4.944   7.365
 3892SOL     OW18202   2.044   2.892   6.354
 3892SOL    HW118203   1.978   2.958   6.390
 3892SOL    HW218204   2.127   2.893   6.411
 3893SOL     OW18205   0.880   3.633   1.755
 3893SOL    HW118206   0.958   3.584   1.715
 3893SOL    HW218207   0.876   3.613   1.853
 3894SOL     OW18208   0.859   1.400   6.855
 3894SOL    HW118209   0.762   1.399   6.833
 3894SOL    HW218210   0.902   1.317   6.820
 3895SOL     OW18211   1.681   1.189   7.351
 3895SOL    HW118212   1.754   1.156   7.292
 3895SOL    HW218213   1.598   1.204   7.297
 3896SOL     OW18214   3.735   6.060   6.640
 3896SOL    HW118215   3.666   6.116   6.595
 3896SOL    HW218216   3.824   6.105   6.632
 3897SOL     OW18217   0.748   2.438   0.145
 3897SOL    HW118218   0.648   2.439   0.145
 3897SOL    HW218219   0.782   2.531   0.162
 3898SOL     OW18220   3.286   0.688   0.404
 3898SOL    HW118221   3.382   0.661   0.413
 3898SOL    HW218222   3.259   0.741   0.484
 3899SOL     OW18223   3.702   2.949   7.312
 3899SOL    HW118224   3.713   2.948   7.213
 3899SOL    HW218225   3.652   3.031   7.340
 3900SOL     OW18226   0.108   2.508   0.564
 3900SOL    HW118227   0.137   2.518   0.659
 3900SOL    HW218228   0.038   2.436   0.558
 3901SOL     OW18229   5.007   1.004   5.552
 3901SOL    HW118230   4.962   1.093   5.561
 3901SOL    HW218231   4.993   0.969   5.459
 3902SOL     OW18232   1.481   3.632   6.339
 3902SOL    HW118233   1.439   3.683   6.413
 3902SOL    HW218234   1.549   3.689   6.293
 3903SOL     OW18235   0.899   0.997   5.968
 3903SOL    HW118236   0.879   1.095   5.964
 3903SOL    HW218237   0.823   0.945   5.929
 3904SOL     OW18238   5.956   1.749   6.854
 3904SOL    HW118239   5.995   1.664   6.888
 3904SOL    HW218240   6.020   1.824   6.871
 3905SOL     OW18241   4.633   3.604   0.054
 3905SOL    HW118242   4.698   3.613   7.393
 3905SOL    HW218243   4.584   3.691   0.066
 3906SOL     OW18244   5.170   3.904   1.222
 3906SOL    HW118245   5.143   3.841   1.149
 3906SOL    HW218246   5.256   3.873   1.263
 3907SOL     OW18247   0.890   3.604   0.626
 3907SOL    HW118248   0.919   3.510   0.644
 3907SOL    HW218249   0.868   3.649   0.712
 3908SOL     OW18250   5.889   4.606   1.523
 3908SOL    HW118251   5.892   4.703   1.548
 3908SOL    HW218252   5.879   4.551   1.606
 3909SOL     OW18253   0.498   3.814   6.359
 3909SOL    HW118254   0.437   3.811   6.439
 3909SOL    HW218255   0.526   3.908   6.342
 3910SOL     OW18256   2.267   3.342   0.542
 3910SOL    HW118257   2.292   3.347   0.638
 3910SOL    HW218258   2.197   3.410   0.522
 3911SOL     OW18259   5.692   3.319   5.665
 3911SOL    HW118260   5.778   3.370   5.670
 3911SOL    HW218261   5.661   3.315   5.570
 3912SOL     OW18262   0.915   2.801   0.490
 3912SOL    HW118263   0.888   2.714   0.531
 3912SOL    HW218264   0.987   2.843   0.546
 3913SOL     OW18265   1.102   0.413   0.806
 3913SOL    HW118266   1.062   0.464   0.730
 3913SOL    HW218267   1.191   0.375   0.778
 3914SOL     OW18268   5.348   5.326   0.968
 3914SOL    HW118269   5.293   5.379   0.903
 3914SOL    HW218270   5.340   5.229   0.945
 3915SOL     OW18271   0.080   0.845   5.898
 3915SOL    HW118272   0.057   0.802   5.986
 3915SOL    HW218273   0.068   0.944   5.906
 3916SOL     OW18274   5.014   6.312   6.480
 3916SOL    HW118275   5.114   6.305   6.489
 3916SOL    HW218276   4.986   6.406   6.495
 3917SOL     OW18277   5.661   5.885   0.350
 3917SOL    HW118278   5.698   5.967   0.392
 3917SOL    HW218279   5.561   5.886   0.358
 3918SOL     OW18280   2.436   1.226   0.420
 3918SOL    HW118281   2.409   1.303   0.477
 3918SOL    HW218282   2.502   1.169   0.470
 3919SOL     OW18283   1.255   6.448   6.074
 3919SOL    HW118284   1.336   6.395   6.099
 3919SOL    HW218285   1.174   6.389   6.078
 3920SOL     OW18286   3.129   2.549   0.859
 3920SOL    HW118287   3.122   2.642   0.896
 3920SOL    HW218288   3.117   2.483   0.933
 3921SOL     OW18289   3.014   0.273   6.077
 3921SOL    HW118290   2.993   0.270   5.979
 3921SOL    HW218291   3.111   0.256   6.091
 3922SOL     OW18292   3.870   3.951   0.310
 3922SOL    HW118293   3.921   4.033   0.283
 3922SOL    HW218294   3.878   3.937   0.408
 3923SOL     OW18295   6.451   5.362   0.965
 3923SOL    HW118296   6.500   5.278   0.944
 3923SOL    HW218297   6.387   5.383   0.891
 3924SOL     OW18298   6.004   3.629   0.841
 3924SOL    HW118299   6.030   3.662   0.750
 3924SOL    HW218300   6.043   3.538   0.856
 3925SOL     OW18301   0.167   5.697   1.717
 3925SOL    HW118302   0.176   5.657   1.809
 3925SOL    HW218303   0.111   5.779   1.722
 3926SOL     OW18304   5.997   4.072   6.021
 3926SOL    HW118305   6.084   4.030   6.045
 3926SOL    HW218306   6.002   4.171   6.033
 3927SOL     OW18307   3.679   0.006   0.795
 3927SOL    HW118308   3.727   0.067   0.858
 3927SOL    HW218309   3.581   0.027   0.796
 3928SOL     OW18310   1.070   3.732   6.484
 3928SOL    HW118311   0.990   3.678   6.511
 3928SOL    HW218312   1.046   3.787   6.404
 3929SOL     OW18313   0.859   2.315   6.889
 3929SOL    HW118314   0.832   2.221   6.867
 3929SOL    HW218315   0.778   2.371   6.903
 3930SOL     OW18316   2.273   3.819   6.372
 3930SOL    HW118317   2.208   3.745   6.386
 3930SOL    HW218318   2.357   3.799   6.423
 3931SOL     OW18319   0.713   6.462   0.252
 3931SOL    HW118320   0.699   0.083   0.274
 3931SOL    HW218321   0.743   6.454   0.156
 3932SOL     OW18322   0.128   0.954   1.259
 3932SOL    HW118323   0.059   0.985   1.324
 3932SOL    HW218324   0.100   0.980   1.166
 3933SOL     OW18325   3.794   1.926   6.104
 3933SOL    HW118326   3.732   1.866   6.155
 3933SOL    HW218327   3.777   2.021   6.130
 3934SOL     OW18328   6.576   2.966   6.905
 3934SOL    HW118329   6.509   3.039   6.892
 3934SOL    HW218330   6.553   2.889   6.845
 3935SOL     OW18331   2.624   1.023   6.783
 3935SOL    HW118332   2.580   0.962   6.849
 3935SOL    HW218333   2.638   1.113   6.825
 3936SOL     OW18334   5.597   0.566   0.516
 3936SOL    HW118335   5.655   0.635   0.473
 3936SOL    HW218336   5.637   0.537   0.603
 3937SOL     OW18337   1.324   3.705   6.971
 3937SOL    HW118338   1.318   3.785   7.030
 3937SOL    HW218339   1.279   3.627   7.015
 3938SOL     OW18340   1.008   6.357   6.965
 3938SOL    HW118341   0.979   6.352   6.869
 3938SOL    HW218342   1.022   6.265   7.000
 3939SOL     OW18343   5.244   1.800   6.909
 3939SOL    HW118344   5.257   1.783   7.007
 3939SOL    HW218345   5.332   1.793   6.862
 3940SOL     OW18346   5.123   1.457   6.440
 3940SOL    HW118347   5.053   1.386   6.444
 3940SOL    HW218348   5.182   1.450   6.521
 3941SOL     OW18349   6.502   3.910   5.096
 3941SOL    HW118350   6.462   3.875   5.011
 3941SOL    HW218351   0.007   3.863   5.114
 3942SOL     OW18352   0.463   1.308   5.624
 3942SOL    HW118353   0.536   1.341   5.564
 3942SOL    HW218354   0.376   1.348   5.594
 3943SOL     OW18355   5.238   5.233   6.918
 3943SOL    HW118356   5.154   5.258   6.870
 3943SOL    HW218357   5.217   5.168   6.991
 3944SOL     OW18358   2.423   2.390   6.282
 3944SOL    HW118359   2.398   2.438   6.197
 3944SOL    HW218360   2.383   2.439   6.360
 3945SOL     OW18361   6.540   0.161   0.956
 3945SOL    HW118362   6.487   0.244   0.939
 3945SOL    HW218363   6.542   0.141   1.054
 3946SOL     OW18364   5.570   4.525   0.855
 3946SOL    HW118365   5.501   4.511   0.926
 3946SOL    HW218366   5.633   4.448   0.854
 3947SOL     OW18367   2.975   1.575   0.199
 3947SOL    HW118368   3.029   1.539   0.275
 3947SOL    HW218369   2.915   1.648   0.233
 3948SOL     OW18370   5.535   5.496   1.606
 3948SOL    HW118371   5.482   5.580   1.614
 3948SOL    HW218372   5.629   5.513   1.636
 3949SOL     OW18373   0.344   5.767   5.499
 3949SOL    HW118374   0.316   5.691   5.440
 3949SOL    HW218375   0.401   5.733   5.573
 3950SOL     OW18376   0.661   4.881   6.364
 3950SOL    HW118377   0.571   4.884   6.322
 3950SOL    HW218378   0.715   4.959   6.333
 3951SOL     OW18379   3.954   6.161   0.177
 3951SOL    HW118380   4.007   6.076   0.171
 3951SOL    HW218381   3.925   6.176   0.271
 3952SOL     OW18382   0.629   1.744   6.971
 3952SOL    HW118383   0.715   1.789   6.996
 3952SOL    HW218384   0.605   1.677   7.041
 3953SOL     OW18385   6.172   3.848   7.197
 3953SOL    HW118386   6.156   3.942   7.226
 3953SOL    HW218387   6.260   3.842   7.149
 3954SOL     OW18388   5.903   2.925   1.412
 3954SOL    HW118389   5.834   2.951   1.346
 3954SOL    HW218390   5.954   3.005   1.442
 3955SOL     OW18391   4.589   5.887   1.774
 3955SOL    HW118392   4.529   5.812   1.800
 3955SOL    HW218393   4.537   5.957   1.727
 3956SOL     OW18394   5.997   4.853   0.049
 3956SOL    HW118395   5.991   4.932   0.109
 3956SOL    HW218396   6.091   4.818   0.047
 3957SOL     OW18397   5.180   0.891   1.874
 3957SOL    HW118398   5.203   0.988   1.886
 3957SOL    HW218399   5.150   0.852   1.961
 3958SOL     OW18400   1.528   2.968   1.457
 3958SOL    HW118401   1.564   2.894   1.513
 3958SOL    HW218402   1.495   3.042   1.516
 3959SOL     OW18403   0.557   3.560   1.121
 3959SOL    HW118404   0.502   3.568   1.203
 3959SOL    HW218405   0.642   3.612   1.132
 3960SOL     OW18406   4.525   1.030   1.041
 3960SOL    HW118407   4.549   0.941   1.080
 3960SOL    HW218408   4.436   1.059   1.076
 3961SOL     OW18409   3.930   5.481   6.187
 3961SOL    HW118410   4.019   5.520   6.162
 3961SOL    HW218411   3.859   5.522   6.130
 3962SOL     OW18412   4.139   5.564   0.023
 3962SOL    HW118413   4.149   5.619   0.106
 3962SOL    HW218414   4.060   5.596   7.386
 3963SOL     OW18415   5.558   1.498   0.507
 3963SOL    HW118416   5.538   1.418   0.564
 3963SOL    HW218417   5.496   1.572   0.532
 3964SOL     OW18418   5.319   3.257   0.013
 3964SOL    HW118419   5.331   3.175   7.371
 3964SOL    HW218420   5.315   3.231   0.110
 3965SOL     OW18421   0.355   2.521   0.439
 3965SOL    HW118422   0.417   2.447   0.467
 3965SOL    HW218423   0.265   2.505   0.479
 3966SOL     OW18424   0.762   1.656   7.256
 3966SOL    HW118425   0.767   1.754   7.276
 3966SOL    HW218426   0.667   1.631   7.236
 3967SOL     OW18427   5.938   2.929   5.671
 3967SOL    HW118428   5.909   3.008   5.725
 3967SOL    HW218429   5.887   2.926   5.585
 3968SOL     OW18430   2.002   4.698   0.330
 3968SOL    HW118431   1.999   4.791   0.293
 3968SOL    HW218432   1.913   4.655   0.319
 3969SOL     OW18433   0.315   5.121   0.473
 3969SOL    HW118434   0.275   5.105   0.383
 3969SOL    HW218435   0.281   5.208   0.509
 3970SOL     OW18436   3.355   6.009   0.081
 3970SOL    HW118437   3.397   6.033   0.169
 3970SOL    HW218438   3.412   6.044   0.006
 3971SOL     OW18439   5.941   2.937   0.149
 3971SOL    HW118440   5.974   3.031   0.141
 3971SOL    HW218441   5.848   2.937   0.187
 3972SOL     OW18442   1.296   5.085   5.104
 3972SOL    HW118443   1.286   5.184   5.110
 3972SOL    HW218444   1.257   5.053   5.018
 3973SOL     OW18445   0.137   2.193   6.271
 3973SOL    HW118446   0.101   2.121   6.330
 3973SOL    HW218447   0.075   2.205   6.193
 3974SOL     OW18448   0.835   3.542   7.300
 3974SOL    HW118449   0.828   3.497   7.389
 3974SOL    HW218450   0.794   3.484   7.230
 3975SOL     OW18451   6.320   0.554   6.160
 3975SOL    HW118452   6.374   0.484   6.206
 3975SOL    HW218453   6.226   0.551   6.193
 3976SOL     OW18454   1.742   4.816   0.083
 3976SOL    HW118455   1.835   4.793   0.053
 3976SOL    HW218456   1.676   4.761   0.031
 3977SOL     OW18457   3.373   4.954   1.057
 3977SOL    HW118458   3.464   4.987   1.079
 3977SOL    HW218459   3.355   4.869   1.108
 3978SOL     OW18460   5.225   3.348   0.638
 3978SOL    HW118461   5.179   3.260   0.653
 3978SOL    HW218462   5.304   3.354   0.698
 3979SOL     OW18463   3.694   5.182   1.491
 3979SOL    HW118464   3.749   5.261   1.517
 3979SOL    HW218465   3.631   5.208   1.418
 3980SOL     OW18466   4.715   5.158   6.996
 3980SOL    HW118467   4.752   5.074   7.036
 3980SOL    HW218468   4.777   5.234   7.016
 3981SOL     OW18469   5.340   3.372   6.782
 3981SOL    HW118470   5.369   3.304   6.714
 3981SOL    HW218471   5.285   3.327   6.853
 3982SOL     OW18472   2.196   2.053   6.532
 3982SOL    HW118473   2.174   1.987   6.603
 3982SOL    HW218474   2.257   2.123   6.569
 3983SOL     OW18475   3.102   4.971   0.594
 3983SOL    HW118476   3.128   4.918   0.514
 3983SOL    HW218477   3.010   4.945   0.622
 3984SOL     OW18478   3.101   5.993   0.192
 3984SOL    HW118479   3.036   5.963   0.121
 3984SOL    HW218480   3.192   6.003   0.152
 3985SOL     OW18481   1.174   5.444   1.244
 3985SOL    HW118482   1.235   5.519   1.219
 3985SOL    HW218483   1.081   5.479   1.253
 3986SOL     OW18484   3.734   4.135   6.831
 3986SOL    HW118485   3.791   4.083   6.768
 3986SOL    HW218486   3.667   4.189   6.779
 3987SOL     OW18487   1.588   1.810   0.686
 3987SOL    HW118488   1.587   1.811   0.786
 3987SOL    HW218489   1.670   1.857   0.653
 3988SOL     OW18490   6.120   1.779   1.122
 3988SOL    HW118491   6.094   1.815   1.032
 3988SOL    HW218492   6.166   1.692   1.111
 3989SOL     OW18493   1.325   5.552   6.779
 3989SOL    HW118494   1.352   5.554   6.683
 3989SOL    HW218495   1.229   5.578   6.788
 3990SOL     OW18496   3.188   2.034   0.110
 3990SOL    HW118497   3.194   2.112   0.048
 3990SOL    HW218498   3.113   1.974   0.082
 3991SOL     OW18499   4.040   2.973   6.991
 3991SOL    HW118500   4.024   2.950   6.895
 3991SOL    HW218501   4.104   3.050   6.996
 3992SOL     OW18502   6.514   5.158   5.524
 3992SOL    HW118503   6.504   5.216   5.443
 3992SOL    HW218504   6.471   5.203   5.602
 3993SOL     OW18505   4.007   5.639   6.748
 3993SOL    HW118506   3.950   5.708   6.704
 3993SOL    HW218507   3.967   5.613   6.836
 3994SOL     OW18508   6.451   1.296   5.922
 3994SOL    HW118509   6.357   1.266   5.940
 3994SOL    HW218510   6.464   1.388   5.957
 3995SOL     OW18511   5.498   4.073   1.349
 3995SOL    HW118512   5.593   4.073   1.317
 3995SOL    HW218513   5.461   3.980   1.339
 3996SOL     OW18514   1.868   2.801   7.364
 3996SOL    HW118515   1.892   2.848   7.279
 3996SOL    HW218516   1.951   2.771   7.410
 3997SOL     OW18517   4.837   3.850   1.452
 3997SOL    HW118518   4.857   3.831   1.356
 3997SOL    HW218519   4.914   3.821   1.508
 3998SOL     OW18520   4.669   5.083   5.899
 3998SOL    HW118521   4.701   5.156   5.838
 3998SOL    HW218522   4.601   5.027   5.851
 3999SOL     OW18523   5.128   1.739   6.466
 3999SOL    HW118524   5.141   1.640   6.454
 3999SOL    HW218525   5.209   1.787   6.432
 4000SOL     OW18526   1.259   4.951   5.924
 4000SOL    HW118527   1.197   4.932   6.000
 4000SOL    HW218528   1.284   5.048   5.925
 4001SOL     OW18529   4.788   1.147   0.192
 4001SOL    HW118530   4.701   1.182   0.225
 4001SOL    HW218531   4.778   1.118   0.097
 4002SOL     OW18532   3.442   1.629   6.424
 4002SOL    HW118533   3.409   1.536   6.439
 4002SOL    HW218534   3.406   1.689   6.495
 4003SOL     OW18535   1.725   4.269   6.702
 4003SOL    HW118536   1.780   4.202   6.651
 4003SOL    HW218537   1.638   4.282   6.656
 4004SOL     OW18538   1.712   2.565   6.923
 4004SOL    HW118539   1.702   2.657   6.884
 4004SOL    HW218540   1.634   2.509   6.895
 4005SOL     OW18541   6.405   2.123   0.730
 4005SOL    HW118542   6.416   2.033   0.688
 4005SOL    HW218543   6.453   2.125   0.817
 4006SOL     OW18544   4.219   5.598   6.582
 4006SOL    HW118545   4.307   5.606   6.628
 4006SOL    HW218546   4.146   5.624   6.645
 4007SOL     OW18547   1.849   3.974   1.216
 4007SOL    HW118548   1.933   4.016   1.181
 4007SOL    HW218549   1.864   3.875   1.226
 4008SOL     OW18550   1.920   0.253   7.163
 4008SOL    HW118551   1.936   0.169   7.111
 4008SOL    HW218552   1.864   0.316   7.110
 4009SOL     OW18553   0.592   1.057   5.656
 4009SOL    HW118554   0.658   1.049   5.582
 4009SOL    HW218555   0.542   1.143   5.647
 4010SOL     OW18556   5.329   5.898   5.708
 4010SOL    HW118557   5.254   5.906   5.643
 4010SOL    HW218558   5.411   5.864   5.661
 4011SOL     OW18559   5.539   1.865   7.242
 4011SOL    HW118560   5.543   1.958   7.206
 4011SOL    HW218561   5.449   1.826   7.221
 4012SOL     OW18562   6.570   3.633   7.323
 4012SOL    HW118563   6.527   3.713   7.363
 4012SOL    HW218564   0.051   3.591   7.390
 4013SOL     OW18565   1.526   1.819   7.068
 4013SOL    HW118566   1.454   1.863   7.014
 4013SOL    HW218567   1.501   1.822   7.165
 4014SOL     OW18568   5.716   1.820   1.191
 4014SOL    HW118569   5.650   1.829   1.266
 4014SOL    HW218570   5.791   1.761   1.220
 4015SOL     OW18571   6.299   5.335   6.655
 4015SOL    HW118572   6.398   5.329   6.664
 4015SOL    HW218573   6.258   5.246   6.674
 4016SOL     OW18574   1.928   5.722   0.058
 4016SOL    HW118575   1.992   5.655   0.095
 4016SOL    HW218576   1.910   5.701   7.376
 4017SOL     OW18577   1.305   5.264   6.204
 4017SOL    HW118578   1.401   5.293   6.205
 4017SOL    HW218579   1.296   5.176   6.250
 4018SOL     OW18580   0.954   2.859   1.310
 4018SOL    HW118581   1.038   2.814   1.279
 4018SOL    HW218582   0.877   2.796   1.303
 4019SOL     OW18583   4.235   5.208   2.220
 4019SOL    HW118584   4.328   5.225   2.187
 4019SOL    HW218585   4.232   5.120   2.267
 4020SOL     OW18586   5.413   1.004   1.547
 4020SOL    HW118587   5.450   1.057   1.471
 4020SOL    HW218588   5.434   1.050   1.634
 4021SOL     OW18589   1.849   4.811   7.130
 4021SOL    HW118590   1.902   4.784   7.211
 4021SOL    HW218591   1.842   4.733   7.068
 4022SOL     OW18592   5.209   3.823   0.306
 4022SOL    HW118593   5.306   3.848   0.305
 4022SOL    HW218594   5.192   3.752   0.238
 4023SOL     OW18595   3.573   6.111   6.160
 4023SOL    HW118596   3.580   6.156   6.071
 4023SOL    HW218597   3.639   6.151   6.223
 4024SOL     OW18598   2.880   3.681   7.021
 4024SOL    HW118599   2.954   3.687   6.955
 4024SOL    HW218600   2.837   3.771   7.032
 4025SOL     OW18601   1.375   4.770   5.459
 4025SOL    HW118602   1.406   4.756   5.365
 4025SOL    HW218603   1.325   4.856   5.465
 4026SOL     OW18604   6.426   4.211   0.540
 4026SOL    HW118605   6.425   4.116   0.507
 4026SOL    HW218606   6.518   4.233   0.573
 4027SOL     OW18607   2.968   4.675   0.793
 4027SOL    HW118608   2.899   4.614   0.831
 4027SOL    HW218609   2.926   4.735   0.725
 4028SOL     OW18610   2.396   5.402   0.367
 4028SOL    HW118611   2.391   5.468   0.442
 4028SOL    HW218612   2.436   5.316   0.400
 4029SOL     OW18613   1.913   4.468   6.745
 4029SOL    HW118614   1.845   4.397   6.730
 4029SOL    HW218615   1.998   4.443   6.698
 4030SOL     OW18616   5.178   2.202   6.686
 4030SOL    HW118617   5.271   2.234   6.669
 4030SOL    HW218618   5.143   2.157   6.604
 4031SOL     OW18619   4.888   5.366   7.037
 4031SOL    HW118620   4.946   5.370   7.118
 4031SOL    HW218621   4.944   5.364   6.955
 4032SOL     OW18622   3.675   1.362   1.287
 4032SOL    HW118623   3.612   1.367   1.364
 4032SOL    HW218624   3.732   1.280   1.295
 4033SOL     OW18625   4.737   0.471   5.530
 4033SOL    HW118626   4.644   0.506   5.535
 4033SOL    HW218627   4.767   0.467   5.435
 4034SOL     OW18628   0.494   1.095   7.200
 4034SOL    HW118629   0.496   1.074   7.103
 4034SOL    HW218630   0.415   1.152   7.221
 4035SOL     OW18631   1.593   4.478   0.829
 4035SOL    HW118632   1.631   4.438   0.912
 4035SOL    HW218633   1.610   4.417   0.752
 4036SOL     OW18634   3.160   0.164   7.072
 4036SOL    HW118635   3.118   0.113   7.147
 4036SOL    HW218636   3.104   0.245   7.052
 4037SOL     OW18637   6.176   1.239   0.100
 4037SOL    HW118638   6.094   1.238   0.043
 4037SOL    HW218639   6.241   1.306   0.064
 4038SOL     OW18640   4.314   1.060   6.985
 4038SOL    HW118641   4.413   1.068   6.995
 4038SOL    HW218642   4.290   1.072   6.888
 4039SOL     OW18643   4.577   1.381   0.618
 4039SOL    HW118644   4.633   1.301   0.593
 4039SOL    HW218645   4.634   1.449   0.663
 4040SOL     OW18646   0.346   4.527   6.949
 4040SOL    HW118647   0.324   4.550   6.855
 4040SOL    HW218648   0.371   4.430   6.955
 4041SOL     OW18649   3.385   1.256   1.017
 4041SOL    HW118650   3.449   1.222   0.949
 4041SOL    HW218651   3.300   1.285   0.972
 4042SOL     OW18652   4.259   2.342   6.448
 4042SOL    HW118653   4.169   2.324   6.487
 4042SOL    HW218654   4.253   2.418   6.384
 4043SOL     OW18655   2.706   5.218   0.624
 4043SOL    HW118656   2.756   5.231   0.538
 4043SOL    HW218657   2.766   5.239   0.701
 4044SOL     OW18658   0.931   5.941   1.312
 4044SOL    HW118659   0.846   5.901   1.279
 4044SOL    HW218660   1.005   5.874   1.305
 4045SOL     OW18661   2.228   0.894   1.142
 4045SOL    HW118662   2.228   0.850   1.231
 4045SOL    HW218663   2.318   0.932   1.123
 4046SOL     OW18664   2.840   3.536   0.302
 4046SOL    HW118665   2.936   3.531   0.274
 4046SOL    HW218666   2.785   3.478   0.241
 4047SOL     OW18667   3.334   0.843   1.059
 4047SOL    HW118668   3.424   0.803   1.076
 4047SOL    HW218669   3.325   0.927   1.113
 4048SOL     OW18670   3.544   4.446   0.958
 4048SOL    HW118671   3.535   4.502   0.875
 4048SOL    HW218672   3.473   4.375   0.958
 4049SOL     OW18673   0.639   5.180   1.126
 4049SOL    HW118674   0.628   5.253   1.193
 4049SOL    HW218675   0.610   5.093   1.166
 4050SOL     OW18676   6.315   0.434   7.039
 4050SOL    HW118677   6.388   0.419   7.106
 4050SOL    HW218678   6.274   0.346   7.014
 4051SOL     OW18679   4.033   4.489   6.186
 4051SOL    HW118680   4.114   4.522   6.137
 4051SOL    HW218681   4.062   4.425   6.257
 4052SOL     OW18682   5.157   0.728   7.408
 4052SOL    HW118683   5.073   0.773   7.378
 4052SOL    HW218684   5.142   0.688   0.085
 4053SOL     OW18685   5.789   1.982   5.483
 4053SOL    HW118686   5.794   1.901   5.541
 4053SOL    HW218687   5.882   2.010   5.457
 4054SOL     OW18688   4.521   1.218   0.232
 4054SOL    HW118689   4.504   1.120   0.239
 4054SOL    HW218690   4.446   1.268   0.275
 4055SOL     OW18691   6.377   1.741   1.839
 4055SOL    HW118692   6.279   1.723   1.835
 4055SOL    HW218693   6.394   1.836   1.864
 4056SOL     OW18694   5.629   3.091   6.915
 4056SOL    HW118695   5.657   3.142   6.833
 4056SOL    HW218696   5.608   2.996   6.890
 4057SOL     OW18697   0.933   0.999   0.319
 4057SOL    HW118698   0.975   1.087   0.339
 4057SOL    HW218699   1.002   0.937   0.281
 4058SOL     OW18700   5.256   4.231   7.370
 4058SOL    HW118701   5.314   4.179   0.017
 4058SOL    HW218702   5.302   4.316   7.343
 4059SOL     OW18703   0.351   2.532   5.896
 4059SOL    HW118704   0.311   2.554   5.985
 4059SOL    HW218705   0.316   2.443   5.865
 4060SOL     OW18706   2.971   6.462   0.645
 4060SOL    HW118707   2.872   6.465   0.655
 4060SOL    HW218708   2.995   6.452   0.549
 4061SOL     OW18709   4.972   3.591   5.992
 4061SOL    HW118710   5.066   3.623   5.989
 4061SOL    HW218711   4.970   3.491   5.997
 4062SOL     OW18712   5.050   1.198   1.272
 4062SOL    HW118713   4.969   1.193   1.330
 4062SOL    HW218714   5.104   1.115   1.283
 4063SOL     OW18715   4.290   0.017   6.488
 4063SOL    HW118716   4.252   0.034   6.579
 4063SOL    HW218717   4.269   0.094   6.428
 4064SOL     OW18718   2.380   4.193   0.948
 4064SOL    HW118719   2.324   4.276   0.952
 4064SOL    HW218720   2.321   4.115   0.928
 4065SOL     OW18721   0.962   0.304   6.145
 4065SOL    HW118722   1.051   0.273   6.177
 4065SOL    HW218723   0.932   0.247   6.069
 4066SOL     OW18724   3.866   6.201   0.439
 4066SOL    HW118725   3.931   6.199   0.515
 4066SOL    HW218726   3.800   6.276   0.454
 4067SOL     OW18727   6.352   5.288   5.712
 4067SOL    HW118728   6.364   5.387   5.713
 4067SOL    HW218729   6.271   5.265   5.658
 4068SOL     OW18730   1.216   5.719   0.558
 4068SOL    HW118731   1.126   5.742   0.520
 4068SOL    HW218732   1.242   5.787   0.626
 4069SOL     OW18733   0.948   4.232   0.422
 4069SOL    HW118734   0.930   4.305   0.356
 4069SOL    HW218735   0.861   4.192   0.452
 4070SOL     OW18736   3.936   4.023   1.058
 4070SOL    HW118737   4.006   4.094   1.072
 4070SOL    HW218738   3.863   4.060   1.001
 4071SOL     OW18739   4.419   3.315   7.137
 4071SOL    HW118740   4.494   3.357   7.086
 4071SOL    HW218741   4.456   3.263   7.214
 4072SOL     OW18742   1.169   0.090   0.182
 4072SOL    HW118743   1.162   0.165   0.248
 4072SOL    HW218744   1.166   0.128   0.089
 4073SOL     OW18745   3.057   6.300   6.218
 4073SOL    HW118746   2.994   6.280   6.143
 4073SOL    HW218747   3.144   6.254   6.201
 4074SOL     OW18748   2.573   2.170   7.373
 4074SOL    HW118749   2.502   2.217   7.319
 4074SOL    HW218750   2.662   2.211   7.353
 4075SOL     OW18751   4.808   5.950   7.394
 4075SOL    HW118752   4.849   5.869   0.023
 4075SOL    HW218753   4.708   5.947   7.405
 4076SOL     OW18754   2.519   1.222   1.258
 4076SOL    HW118755   2.470   1.294   1.210
 4076SOL    HW218756   2.602   1.259   1.299
 4077SOL     OW18757   3.283   0.942   0.173
 4077SOL    HW118758   3.215   0.868   0.175
 4077SOL    HW218759   3.236   1.030   0.186
 4078SOL     OW18760   3.989   1.721   6.591
 4078SOL    HW118761   3.999   1.678   6.681
 4078SOL    HW218762   3.999   1.820   6.601
 4079SOL     OW18763   4.429   3.528   6.350
 4079SOL    HW118764   4.391   3.457   6.410
 4079SOL    HW218765   4.482   3.485   6.277
 4080SOL     OW18766   0.527   2.053   7.264
 4080SOL    HW118767   0.533   2.153   7.259
 4080SOL    HW218768   0.470   2.027   7.342
 4081SOL     OW18769   6.204   0.550   0.016
 4081SOL    HW118770   6.182   0.453   0.011
 4081SOL    HW218771   6.186   0.583   0.109
 4082SOL     OW18772   0.149   6.404   7.232
 4082SOL    HW118773   0.185   6.362   7.149
 4082SOL    HW218774   0.199   6.369   7.311
 4083SOL     OW18775   6.416   4.200   0.060
 4083SOL    HW118776   6.450   4.137   0.129
 4083SOL    HW218777   6.457   4.290   0.074
 4084SOL     OW18778   5.667   0.350   5.982
 4084SOL    HW118779   5.598   0.370   6.052
 4084SOL    HW218780   5.710   0.262   6.001
 4085SOL     OW18781   3.977   0.399   6.161
 4085SOL    HW118782   3.977   0.361   6.069
 4085SOL    HW218783   3.930   0.487   6.160
 4086SOL     OW18784   6.347   6.015   5.492
 4086SOL    HW118785   6.420   5.988   5.430
 4086SOL    HW218786   6.260   6.014   5.443
 4087SOL     OW18787   5.895   1.079   1.159
 4087SOL    HW118788   5.953   1.012   1.204
 4087SOL    HW218789   5.853   1.139   1.227
 4088SOL     OW18790   5.127   5.991   0.738
 4088SOL    HW118791   5.144   6.010   0.835
 4088SOL    HW218792   5.037   6.028   0.713
 4089SOL     OW18793   0.261   6.276   0.043
 4089SOL    HW118794   0.329   6.310   0.108
 4089SOL    HW218795   0.215   6.196   0.081
 4090SOL     OW18796   5.525   1.045   0.169
 4090SOL    HW118797   5.472   0.970   0.129
 4090SOL    HW218798   5.468   1.095   0.234
 4091SOL     OW18799   6.051   3.188   0.145
 4091SOL    HW118800   6.149   3.191   0.161
 4091SOL    HW218801   6.024   3.268   0.091
 4092SOL     OW18802   1.449   2.729   5.671
 4092SOL    HW118803   1.422   2.689   5.583
 4092SOL    HW218804   1.429   2.827   5.671
 4093SOL     OW18805   3.638   2.370   1.430
 4093SOL    HW118806   3.568   2.431   1.467
 4093SOL    HW218807   3.721   2.377   1.484
 4094SOL     OW18808   0.456   5.253   0.936
 4094SOL    HW118809   0.530   5.222   0.996
 4094SOL    HW218810   0.492   5.269   0.844
 4095SOL     OW18811   0.658   6.377   0.512
 4095SOL    HW118812   0.667   6.418   0.421
 4095SOL    HW218813   0.619   6.445   0.574
 4096SOL     OW18814   2.985   3.176   0.405
 4096SOL    HW118815   3.072   3.222   0.426
 4096SOL    HW218816   2.959   3.195   0.310
 4097SOL     OW18817   2.128   0.280   6.405
 4097SOL    HW118818   2.198   0.340   6.367
 4097SOL    HW218819   2.099   0.314   6.494
 4098SOL     OW18820   0.400   0.292   0.759
 4098SOL    HW118821   0.424   0.368   0.820
 4098SOL    HW218822   0.325   0.239   0.799
 4099SOL     OW18823   4.712   2.235   6.187
 4099SOL    HW118824   4.664   2.147   6.188
 4099SOL    HW218825   4.791   2.231   6.248
 4100SOL     OW18826   3.723   3.502   0.256
 4100SOL    HW118827   3.762   3.539   0.171
 4100SOL    HW218828   3.745   3.563   0.332
 4101SOL     OW18829   3.138   1.312   0.888
 4101SOL    HW118830   3.197   1.298   0.808
 4101SOL    HW218831   3.044   1.326   0.859
 4102SOL     OW18832   4.564   6.451   6.499
 4102SOL    HW118833   4.592   6.355   6.491
 4102SOL    HW218834   4.465   6.457   6.487
 4103SOL     OW18835   0.300   4.760   7.109
 4103SOL    HW118836   0.307   4.673   7.060
 4103SOL    HW218837   0.214   4.764   7.160
 4104SOL     OW18838   6.356   0.772   1.005
 4104SOL    HW118839   6.390   0.866   1.009
 4104SOL    HW218840   6.392   0.727   0.924
 4105SOL     OW18841   3.525   1.186   5.650
 4105SOL    HW118842   3.458   1.219   5.717
 4105SOL    HW218843   3.511   1.232   5.563
 4106SOL     OW18844   0.133   4.165   0.390
 4106SOL    HW118845   0.124   4.211   0.479
 4106SOL    HW218846   0.197   4.215   0.333
 4107SOL     OW18847   0.246   5.351   0.645
 4107SOL    HW118848   0.344   5.338   0.664
 4107SOL    HW218849   0.204   5.398   0.721
 4108SOL     OW18850   0.331   3.612   0.975
 4108SOL    HW118851   0.278   3.657   1.047
 4108SOL    HW218852   0.421   3.586   1.011
 4109SOL     OW18853   1.721   6.444   1.199
 4109SOL    HW118854   1.750   6.411   1.289
 4109SOL    HW218855   1.624   6.426   1.186
 4110SOL     OW18856   0.363   0.078   6.239
 4110SOL    HW118857   0.412   0.126   6.165
 4110SOL    HW218858   0.302   0.142   6.285
 4111SOL     OW18859   1.114   1.095   7.163
 4111SOL    HW118860   1.126   0.998   7.142
 4111SOL    HW218861   1.155   1.151   7.091
 4112SOL     OW18862   4.955   1.236   6.482
 4112SOL    HW118863   4.886   1.229   6.554
 4112SOL    HW218864   4.921   1.191   6.399
 4113SOL     OW18865   6.390   0.394   0.919
 4113SOL    HW118866   6.396   0.470   0.855
 4113SOL    HW218867   6.415   0.424   1.011
 4114SOL     OW18868   5.330   2.736   6.833
 4114SOL    HW118869   5.291   2.706   6.920
 4114SOL    HW218870   5.276   2.812   6.796
 4115SOL     OW18871   0.965   6.043   6.203
 4115SOL    HW118872   1.025   5.987   6.146
 4115SOL    HW218873   0.944   5.994   6.288
 4116SOL     OW18874   4.647   5.536   6.511
 4116SOL    HW118875   4.615   5.600   6.441
 4116SOL    HW218876   4.731   5.571   6.553
 4117SOL     OW18877   5.845   4.685   0.671
 4117SOL    HW118878   5.908   4.640   0.735
 4117SOL    HW218879   5.820   4.620   0.599
 4118SOL     OW18880   2.904   3.368   0.802
 4118SOL    HW118881   2.881   3.295   0.737
 4118SOL    HW218882   2.925   3.329   0.891
 4119SOL     OW18883   5.810   0.469   6.337
 4119SOL    HW118884   5.754   0.542   6.299
 4119SOL    HW218885   5.789   0.458   6.435
 4120SOL     OW18886   4.456   6.086   1.646
 4120SOL    HW118887   4.378   6.101   1.707
 4120SOL    HW218888   4.423   6.055   1.556
 4121SOL     OW18889   1.026   3.788   0.472
 4121SOL    HW118890   0.983   3.717   0.527
 4121SOL    HW218891   1.042   3.869   0.528
 4122SOL     OW18892   6.275   5.412   0.758
 4122SOL    HW118893   6.329   5.481   0.709
 4122SOL    HW218894   6.235   5.348   0.692
 4123SOL     OW18895   5.630   5.291   1.452
 4123SOL    HW118896   5.696   5.255   1.518
 4123SOL    HW218897   5.581   5.369   1.492
 4124SOL     OW18898   4.259   5.708   0.237
 4124SOL    HW118899   4.324   5.644   0.197
 4124SOL    HW218900   4.303   5.758   0.312
 4125SOL     OW18901   0.482   0.352   1.145
 4125SOL    HW118902   0.479   0.412   1.065
 4125SOL    HW218903   0.439   0.264   1.122
 4126SOL     OW18904   5.382   0.073   0.509
 4126SOL    HW118905   5.337   0.163   0.509
 4126SOL    HW218906   5.424   0.056   0.598
 4127SOL     OW18907   5.985   4.242   6.523
 4127SOL    HW118908   6.041   4.254   6.605
 4127SOL    HW218909   5.890   4.227   6.550
 4128SOL     OW18910   1.030   4.032   6.023
 4128SOL    HW118911   0.991   4.097   5.958
 4128SOL    HW218912   1.064   3.952   5.974
 4129SOL     OW18913   3.772   1.753   1.152
 4129SOL    HW118914   3.732   1.837   1.187
 4129SOL    HW218915   3.865   1.744   1.187
 4130SOL     OW18916   6.377   5.123   1.353
 4130SOL    HW118917   6.385   5.212   1.398
 4130SOL    HW218918   6.331   5.135   1.265
 4131SOL     OW18919   3.933   5.066   7.132
 4131SOL    HW118920   3.935   5.095   7.227
 4131SOL    HW218921   3.946   5.146   7.072
 4132SOL     OW18922   3.415   2.599   6.811
 4132SOL    HW118923   3.412   2.645   6.900
 4132SOL    HW218924   3.397   2.665   6.739
 4133SOL     OW18925   4.100   3.825   1.733
 4133SOL    HW118926   4.184   3.879   1.739
 4133SOL    HW218927   4.120   3.729   1.755
 4134SOL     OW18928   3.222   5.227   7.086
 4134SOL    HW118929   3.298   5.164   7.068
 4134SOL    HW218930   3.136   5.182   7.062
 4135SOL     OW18931   1.265   5.270   1.973
 4135SOL    HW118932   1.360   5.290   1.950
 4135SOL    HW218933   1.261   5.226   2.063
 4136SOL     OW18934   3.469   5.759   6.917
 4136SOL    HW118935   3.539   5.695   6.884
 4136SOL    HW218936   3.380   5.731   6.881
 4137SOL     OW18937   0.390   0.485   7.094
 4137SOL    HW118938   0.462   0.531   7.043
 4137SOL    HW218939   0.346   0.549   7.157
 4138SOL     OW18940   0.166   1.591   1.060
 4138SOL    HW118941   0.148   1.677   1.108
 4138SOL    HW218942   0.081   1.538   1.054
 4139SOL     OW18943   1.409   5.015   0.159
 4139SOL    HW118944   1.494   5.032   0.110
 4139SOL    HW218945   1.332   5.046   0.104
 4140SOL     OW18946   1.855   1.605   6.566
 4140SOL    HW118947   1.851   1.701   6.541
 4140SOL    HW218948   1.828   1.594   6.661
 4141SOL     OW18949   3.298   3.936   1.324
 4141SOL    HW118950   3.235   3.947   1.247
 4141SOL    HW218951   3.385   3.900   1.290
 4142SOL     OW18952   1.168   0.222   6.950
 4142SOL    HW118953   1.102   0.180   7.013
 4142SOL    HW218954   1.168   0.170   6.864
 4143SOL     OW18955   3.517   3.747   7.171
 4143SOL    HW118956   3.427   3.739   7.213
 4143SOL    HW218957   3.572   3.665   7.194
 4144SOL     OW18958   5.108   4.631   5.418
 4144SOL    HW118959   5.011   4.656   5.414
 4144SOL    HW218960   5.164   4.714   5.410
 4145SOL     OW18961   3.257   3.348   0.385
 4145SOL    HW118962   3.280   3.292   0.464
 4145SOL    HW218963   3.337   3.402   0.358
 4146SOL     OW18964   4.297   4.866   7.222
 4146SOL    HW118965   4.257   4.898   7.308
 4146SOL    HW218966   4.226   4.866   7.151
 4147SOL     OW18967   1.050   5.281   6.313
 4147SOL    HW118968   1.055   5.303   6.411
 4147SOL    HW218969   1.142   5.284   6.274
 4148SOL     OW18970   1.293   5.028   6.335
 4148SOL    HW118971   1.346   5.012   6.418
 4148SOL    HW218972   1.204   4.982   6.344
 4149SOL     OW18973   1.638   0.595   0.236
 4149SOL    HW118974   1.550   0.606   0.282
 4149SOL    HW218975   1.709   0.643   0.286
 4150SOL     OW18976   4.895   5.402   1.332
 4150SOL    HW118977   4.836   5.410   1.413
 4150SOL    HW218978   4.839   5.408   1.250
 4151SOL     OW18979   0.333   4.109   0.004
 4151SOL    HW118980   0.409   4.128   7.356
 4151SOL    HW218981   0.250   4.090   7.365
 4152SOL     OW18982   6.346   1.004   0.696
 4152SOL    HW118983   6.333   1.099   0.669
 4152SOL    HW218984   6.271   0.976   0.756
 4153SOL     OW18985   0.687   2.790   0.914
 4153SOL    HW118986   0.761   2.724   0.927
 4153SOL    HW218987   0.683   2.852   0.992
 4154SOL     OW18988   0.683   1.519   6.564
 4154SOL    HW118989   0.647   1.478   6.647
 4154SOL    HW218990   0.614   1.516   6.492
 4155SOL     OW18991   1.629   4.744   6.175
 4155SOL    HW118992   1.661   4.691   6.254
 4155SOL    HW218993   1.697   4.739   6.102
 4156SOL     OW18994   2.498   1.399   6.076
 4156SOL    HW118995   2.460   1.451   5.999
 4156SOL    HW218996   2.578   1.348   6.045
 4157SOL     OW18997   2.641   1.857   1.504
 4157SOL    HW118998   2.557   1.805   1.516
 4157SOL    HW218999   2.697   1.848   1.587
 4158SOL     OW19000   4.416   3.202   6.141
 4158SOL    HW119001   4.332   3.231   6.094
 4158SOL    HW219002   4.487   3.184   6.073
 4159SOL     OW19003   4.669   1.428   1.051
 4159SOL    HW119004   4.747   1.471   1.006
 4159SOL    HW219005   4.693   1.335   1.079
 4160SOL     OW19006   2.030   6.344   0.466
 4160SOL    HW119007   2.063   6.415   0.527
 4160SOL    HW219008   1.952   6.378   0.414
 4161SOL     OW19009   4.755   3.076   6.791
 4161SOL    HW119010   4.765   3.116   6.882
 4161SOL    HW219011   4.714   2.985   6.799
 4162SOL     OW19012   4.109   6.371   7.184
 4162SOL    HW119013   4.142   6.364   7.279
 4162SOL    HW219014   4.027   6.314   7.173
 4163SOL     OW19015   3.916   4.695   7.212
 4163SOL    HW119016   4.004   4.705   7.166
 4163SOL    HW219017   3.847   4.752   7.166
 4164SOL     OW19018   3.477   1.991   6.715
 4164SOL    HW119019   3.429   1.908   6.688
 4164SOL    HW219020   3.427   2.071   6.681
 4165SOL     OW19021   4.034   3.627   0.475
 4165SOL    HW119022   3.941   3.663   0.466
 4165SOL    HW219023   4.031   3.535   0.512
 4166SOL     OW19024   0.204   1.397   5.952
 4166SOL    HW119025   0.161   1.310   5.927
 4166SOL    HW219026   0.300   1.396   5.925
 4167SOL     OW19027   0.515   4.153   7.215
 4167SOL    HW119028   0.583   4.221   7.241
 4167SOL    HW219029   0.556   4.062   7.214
 4168SOL     OW19030   1.821   5.277   1.593
 4168SOL    HW119031   1.724   5.294   1.611
 4168SOL    HW219032   1.876   5.349   1.635
 4169SOL     OW19033   3.392   3.078   5.502
 4169SOL    HW119034   3.458   3.102   5.432
 4169SOL    HW219035   3.302   3.115   5.478
 4170SOL     OW19036   1.320   0.466   1.329
 4170SOL    HW119037   1.338   0.383   1.382
 4170SOL    HW219038   1.373   0.542   1.367
 4171SOL     OW19039   5.788   5.244   7.184
 4171SOL    HW119040   5.744   5.269   7.098
 4171SOL    HW219041   5.785   5.321   7.248
 4172SOL     OW19042   3.281   3.253   6.863
 4172SOL    HW119043   3.320   3.343   6.848
 4172SOL    HW219044   3.286   3.230   6.960
 4173SOL     OW19045   1.273   2.480   1.337
 4173SOL    HW119046   1.339   2.457   1.409
 4173SOL    HW219047   1.312   2.455   1.248
 4174SOL     OW19048   4.105   4.958   1.999
 4174SOL    HW119049   4.197   4.955   2.037
 4174SOL    HW219050   4.039   4.929   2.069
 4175SOL     OW19051   6.513   3.915   1.040
 4175SOL    HW119052   6.512   3.905   0.941
 4175SOL    HW219053   6.529   4.011   1.064
 4176SOL     OW19054   4.979   2.442   5.060
 4176SOL    HW119055   5.048   2.478   5.122
 4176SOL    HW219056   5.024   2.384   4.991
 4177SOL     OW19057   2.800   3.968   7.016
 4177SOL    HW119058   2.899   3.967   6.999
 4177SOL    HW219059   2.769   4.063   7.026
 4178SOL     OW19060   6.245   1.239   1.321
 4178SOL    HW119061   6.266   1.333   1.350
 4178SOL    HW219062   6.224   1.184   1.402
 4179SOL     OW19063   1.556   0.462   5.612
 4179SOL    HW119064   1.504   0.522   5.552
 4179SOL    HW219065   1.493   0.406   5.666
 4180SOL     OW19066   0.527   2.708   0.293
 4180SOL    HW119067   0.472   2.634   0.332
 4180SOL    HW219068   0.567   2.763   0.366
 4181SOL     OW19069   4.910   1.754   0.246
 4181SOL    HW119070   4.875   1.824   0.308
 4181SOL    HW219071   4.852   1.672   0.252
 4182SOL     OW19072   0.906   5.362   0.781
 4182SOL    HW119073   0.865   5.443   0.822
 4182SOL    HW219074   0.884   5.281   0.836
 4183SOL     OW19075   5.030   6.459   0.922
 4183SOL    HW119076   5.047   6.401   1.002
 4183SOL    HW219077   5.106   6.449   0.857
 4184SOL     OW19078   2.893   2.453   6.067
 4184SOL    HW119079   2.891   2.385   6.140
 4184SOL    HW219080   2.943   2.416   5.988
 4185SOL     OW19081   4.971   2.917   1.084
 4185SOL    HW119082   4.947   2.896   1.179
 4185SOL    HW219083   4.949   2.839   1.025
 4186SOL     OW19084   5.699   3.100   1.855
 4186SOL    HW119085   5.633   3.083   1.928
 4186SOL    HW219086   5.704   3.021   1.794
 4187SOL     OW19087   4.533   2.673   7.134
 4187SOL    HW119088   4.603   2.650   7.066
 4187SOL    HW219089   4.487   2.757   7.106
 4188SOL     OW19090   0.287   1.625   6.720
 4188SOL    HW119091   0.352   1.665   6.655
 4188SOL    HW219092   0.224   1.565   6.671
 4189SOL     OW19093   0.647   3.559   5.808
 4189SOL    HW119094   0.742   3.575   5.834
 4189SOL    HW219095   0.642   3.539   5.710
 4190SOL     OW19096   6.154   5.108   6.676
 4190SOL    HW119097   6.093   5.175   6.634
 4190SOL    HW219098   6.101   5.040   6.726
 4191SOL     OW19099   3.040   3.883   7.257
 4191SOL    HW119100   3.057   3.932   7.171
 4191SOL    HW219101   2.951   3.910   7.293
 4192SOL     OW19102   6.568   0.419   1.487
 4192SOL    HW119103   0.038   0.435   1.571
 4192SOL    HW219104   0.048   0.420   1.409
 4193SOL     OW19105   5.697   2.925   0.692
 4193SOL    HW119106   5.606   2.910   0.653
 4193SOL    HW219107   5.737   2.837   0.717
 4194SOL     OW19108   0.568   5.471   6.170
 4194SOL    HW119109   0.546   5.560   6.211
 4194SOL    HW219110   0.660   5.475   6.131
 4195SOL     OW19111   5.460   0.030   6.480
 4195SOL    HW119112   5.554   0.006   6.456
 4195SOL    HW219113   5.430   0.107   6.424
 4196SOL     OW19114   3.319   0.580   1.615
 4196SOL    HW119115   3.310   0.481   1.622
 4196SOL    HW219116   3.375   0.614   1.692
 4197SOL     OW19117   3.748   6.020   0.034
 4197SOL    HW119118   3.816   6.081   0.077
 4197SOL    HW219119   3.671   6.075   0.001
 4198SOL     OW19120   4.744   1.605   1.681
 4198SOL    HW119121   4.698   1.552   1.753
 4198SOL    HW219122   4.736   1.702   1.701
 4199SOL     OW19123   0.663   4.772   6.756
 4199SOL    HW119124   0.572   4.796   6.721
 4199SOL    HW219125   0.654   4.723   6.842
 4200SOL     OW19126   2.128   1.733   1.125
 4200SOL    HW119127   2.208   1.715   1.067
 4200SOL    HW219128   2.077   1.648   1.138
 4201SOL     OW19129   6.138   0.888   5.798
 4201SOL    HW119130   6.214   0.895   5.863
 4201SOL    HW219131   6.172   0.905   5.705
 4202SOL     OW19132   0.649   6.072   1.004
 4202SOL    HW119133   0.737   6.046   0.963
 4202SOL    HW219134   0.626   6.165   0.977
 4203SOL     OW19135   1.421   6.460   0.834
 4203SOL    HW119136   1.469   0.060   0.790
 4203SOL    HW219137   1.378   0.016   0.918
 4204SOL     OW19138   3.602   2.530   2.292
 4204SOL    HW119139   3.589   2.445   2.240
 4204SOL    HW219140   3.516   2.580   2.295
 4205SOL     OW19141   0.870   6.228   0.303
 4205SOL    HW119142   0.820   6.310   0.275
 4205SOL    HW219143   0.889   6.233   0.401
 4206SOL     OW19144   1.247   3.009   6.260
 4206SOL    HW119145   1.198   3.004   6.173
 4206SOL    HW219146   1.184   2.991   6.335
 4207SOL     OW19147   4.752   0.816   0.767
 4207SOL    HW119148   4.713   0.760   0.694
 4207SOL    HW219149   4.704   0.904   0.771
 4208SOL     OW19150   4.106   5.876   7.320
 4208SOL    HW119151   4.186   5.929   7.292
 4208SOL    HW219152   4.084   5.894   0.001
 4209SOL     OW19153   4.366   3.869   0.293
 4209SOL    HW119154   4.428   3.875   0.215
 4209SOL    HW219155   4.306   3.789   0.282
 4210SOL     OW19156   5.759   5.502   0.185
 4210SOL    HW119157   5.668   5.478   0.218
 4210SOL    HW219158   5.798   5.573   0.244
 4211SOL     OW19159   3.327   4.067   7.371
 4211SOL    HW119160   3.385   4.010   0.015
 4211SOL    HW219161   3.345   4.046   7.275
 4212SOL     OW19162   1.208   2.405   1.737
 4212SOL    HW119163   1.244   2.389   1.829
 4212SOL    HW219164   1.142   2.333   1.714
 4213SOL     OW19165   1.220   4.146   6.637
 4213SOL    HW119166   1.139   4.201   6.615
 4213SOL    HW219167   1.297   4.207   6.658
 4214SOL     OW19168   3.346   1.025   5.318
 4214SOL    HW119169   3.367   1.108   5.267
 4214SOL    HW219170   3.398   0.949   5.281
 4215SOL     OW19171   0.367   6.403   1.873
 4215SOL    HW119172   0.378   6.468   1.948
 4215SOL    HW219173   0.276   6.415   1.832
 4216SOL     OW19174   6.452   4.961   1.564
 4216SOL    HW119175   6.405   5.010   1.491
 4216SOL    HW219176   6.527   4.908   1.526
 4217SOL     OW19177   3.021   5.655   7.309
 4217SOL    HW119178   3.035   5.557   7.294
 4217SOL    HW219179   3.110   5.701   7.313
 4218SOL     OW19180   4.194   1.731   5.905
 4218SOL    HW119181   4.146   1.646   5.885
 4218SOL    HW219182   4.148   1.779   5.980
 4219SOL     OW19183   1.406   4.440   7.023
 4219SOL    HW119184   1.476   4.472   7.087
 4219SOL    HW219185   1.438   4.357   6.978
 4220SOL     OW19186   1.622   5.414   0.886
 4220SOL    HW119187   1.681   5.334   0.876
 4220SOL    HW219188   1.550   5.411   0.816
 4221SOL     OW19189   0.990   6.354   6.681
 4221SOL    HW119190   1.069   6.412   6.699
 4221SOL    HW219191   0.918   6.407   6.636
 4222SOL     OW19192   5.918   5.702   0.787
 4222SOL    HW119193   5.969   5.644   0.850
 4222SOL    HW219194   5.877   5.646   0.715
 4223SOL     OW19195   0.595   5.670   6.871
 4223SOL    HW119196   0.590   5.582   6.918
 4223SOL    HW219197   0.600   5.655   6.773
 4224SOL     OW19198   4.275   2.015   0.462
 4224SOL    HW119199   4.196   2.049   0.412
 4224SOL    HW219200   4.348   1.993   0.398
 4225SOL     OW19201   2.764   2.104   1.503
 4225SOL    HW119202   2.707   2.024   1.486
 4225SOL    HW219203   2.743   2.143   1.593
 4226SOL     OW19204   0.749   1.440   0.652
 4226SOL    HW119205   0.748   1.341   0.667
 4226SOL    HW219206   0.731   1.487   0.738
 4227SOL     OW19207   4.536   3.185   7.351
 4227SOL    HW119208   4.521   3.253   0.008
 4227SOL    HW219209   4.514   3.094   7.386
 4228SOL     OW19210   5.350   1.254   7.246
 4228SOL    HW119211   5.283   1.216   7.309
 4228SOL    HW219212   5.442   1.242   7.284
 4229SOL     OW19213   1.291   5.408   7.171
 4229SOL    HW119214   1.214   5.426   7.232
 4229SOL    HW219215   1.343   5.330   7.205
 4230SOL     OW19216   5.678   2.476   6.469
 4230SOL    HW119217   5.713   2.533   6.395
 4230SOL    HW219218   5.599   2.520   6.512
 4231SOL     OW19219   1.722   5.130   0.377
 4231SOL    HW119220   1.633   5.174   0.368
 4231SOL    HW219221   1.711   5.031   0.368
 4232SOL     OW19222   6.156   4.731   6.103
 4232SOL    HW119223   6.222   4.700   6.034
 4232SOL    HW219224   6.183   4.821   6.137
 4233SOL     OW19225   5.664   5.549   6.821
 4233SOL    HW119226   5.714   5.604   6.754
 4233SOL    HW219227   5.594   5.605   6.865
 4234SOL     OW19228   6.210   5.161   5.295
 4234SOL    HW119229   6.247   5.075   5.332
 4234SOL    HW219230   6.163   5.143   5.209
 4235SOL     OW19231   3.746   3.527   6.606
 4235SOL    HW119232   3.824   3.568   6.558
 4235SOL    HW219233   3.760   3.534   6.705
 4236SOL     OW19234   5.108   5.930   5.543
 4236SOL    HW119235   5.086   5.859   5.476
 4236SOL    HW219236   5.136   6.013   5.494
 4237SOL     OW19237   4.447   2.774   5.846
 4237SOL    HW119238   4.533   2.823   5.834
 4237SOL    HW219239   4.396   2.772   5.760
 4238SOL     OW19240   6.427   5.132   5.922
 4238SOL    HW119241   6.346   5.099   5.970
 4238SOL    HW219242   6.400   5.191   5.846
 4239SOL     OW19243   3.556   3.171   0.546
 4239SOL    HW119244   3.581   3.074   0.554
 4239SOL    HW219245   3.629   3.221   0.500
 4240SOL     OW19246   2.342   5.993   0.351
 4240SOL    HW119247   2.304   6.051   0.423
 4240SOL    HW219248   2.428   6.033   0.318
 4241SOL     OW19249   0.018   6.318   6.310
 4241SOL    HW119250   0.058   6.344   6.398
 4241SOL    HW219251   0.072   6.244   6.270
 4242SOL     OW19252   0.613   0.871   6.164
 4242SOL    HW119253   0.535   0.852   6.106
 4242SOL    HW219254   0.681   0.798   6.154
 4243SOL     OW19255   3.073   4.003   7.009
 4243SOL    HW119256   3.075   4.101   7.033
 4243SOL    HW219257   3.157   3.980   6.959
 4244SOL     OW19258   0.184   1.307   6.589
 4244SOL    HW119259   0.144   1.227   6.544
 4244SOL    HW219260   0.203   1.378   6.521
 4245SOL     OW19261   3.841   0.273   0.569
 4245SOL    HW119262   3.858   0.264   0.471
 4245SOL    HW219263   3.890   0.201   0.618
 4246SOL     OW19264   0.996   0.098   7.135
 4246SOL    HW119265   0.909   0.147   7.145
 4246SOL    HW219266   0.984   0.022   7.070
 4247SOL     OW19267   2.548   1.272   6.327
 4247SOL    HW119268   2.517   1.324   6.406
 4247SOL    HW219269   2.530   1.324   6.244
 4248SOL     OW19270   2.298   0.434   6.710
 4248SOL    HW119271   2.202   0.428   6.683
 4248SOL    HW219272   2.328   0.347   6.748
 4249SOL     OW19273   4.825   2.653   0.636
 4249SOL    HW119274   4.880   2.585   0.587
 4249SOL    HW219275   4.785   2.717   0.570
 4250SOL     OW19276   6.115   1.656   1.804
 4250SOL    HW119277   6.022   1.644   1.839
 4250SOL    HW219278   6.133   1.587   1.734
 4251SOL     OW19279   1.802   2.024   6.875
 4251SOL    HW119280   1.720   2.077   6.898
 4251SOL    HW219281   1.798   1.997   6.779
 4252SOL     OW19282   0.777   0.305   0.702
 4252SOL    HW119283   0.738   0.397   0.709
 4252SOL    HW219284   0.826   0.283   0.786
 4253SOL     OW19285   3.987   5.272   0.574
 4253SOL    HW119286   3.922   5.234   0.639
 4253SOL    HW219287   3.976   5.371   0.569
 4254SOL     OW19288   3.188   4.837   6.772
 4254SOL    HW119289   3.112   4.875   6.719
 4254SOL    HW219290   3.253   4.910   6.794
 4255SOL     OW19291   1.932   3.250   0.016
 4255SOL    HW119292   1.843   3.264   7.386
 4255SOL    HW219293   1.932   3.162   0.064
 4256SOL     OW19294   4.052   2.093   0.282
 4256SOL    HW119295   3.991   2.171   0.291
 4256SOL    HW219296   4.011   2.013   0.326
 4257SOL     OW19297   4.258   5.695   6.327
 4257SOL    HW119298   4.210   5.650   6.252
 4257SOL    HW219299   4.235   5.651   6.414
 4258SOL     OW19300   2.100   1.244   0.813
 4258SOL    HW119301   2.172   1.313   0.809
 4258SOL    HW219302   2.020   1.282   0.860
 4259SOL     OW19303   1.479   4.685   1.894
 4259SOL    HW119304   1.473   4.586   1.899
 4259SOL    HW219305   1.391   4.723   1.866
 4260SOL     OW19306   4.188   4.599   7.048
 4260SOL    HW119307   4.251   4.572   6.976
 4260SOL    HW219308   4.163   4.695   7.038
 4261SOL     OW19309   0.071   3.940   6.605
 4261SOL    HW119310   0.010   3.919   6.682
 4261SOL    HW219311   0.066   4.038   6.584
 4262SOL     OW19312   5.476   2.582   5.865
 4262SOL    HW119313   5.550   2.556   5.802
 4262SOL    HW219314   5.394   2.531   5.842
 4263SOL     OW19315   0.557   0.934   1.254
 4263SOL    HW119316   0.480   0.872   1.267
 4263SOL    HW219317   0.640   0.892   1.291
 4264SOL     OW19318   2.823   3.053   1.165
 4264SOL    HW119319   2.773   3.120   1.220
 4264SOL    HW219320   2.866   2.986   1.226
 4265SOL     OW19321   3.759   3.616   1.745
 4265SOL    HW119322   3.690   3.561   1.699
 4265SOL    HW219323   3.728   3.711   1.750
 4266SOL     OW19324   1.177   2.716   1.241
 4266SOL    HW119325   1.208   2.631   1.284
 4266SOL    HW219326   1.165   2.701   1.142
 4267SOL     OW19327   4.077   5.061   1.590
 4267SOL    HW119328   4.147   5.108   1.536
 4267SOL    HW219329   4.010   5.019   1.529
 4268SOL     OW19330   0.778   1.365   5.706
 4268SOL    HW119331   0.827   1.449   5.729
 4268SOL    HW219332   0.730   1.377   5.619
 4269SOL     OW19333   1.324   3.343   7.366
 4269SOL    HW119334   1.310   3.269   7.300
 4269SOL    HW219335   1.400   3.400   7.335
 4270SOL     OW19336   0.035   0.791   7.319
 4270SOL    HW119337   6.573   0.878   7.296
 4270SOL    HW219338   6.559   0.741   7.383
 4271SOL     OW19339   0.917   0.523   6.304
 4271SOL    HW119340   0.940   0.442   6.249
 4271SOL    HW219341   0.886   0.494   6.394
 4272SOL     OW19342   4.693   1.339   6.285
 4272SOL    HW119343   4.659   1.392   6.207
 4272SOL    HW219344   4.668   1.385   6.370
 4273SOL     OW19345   6.144   0.979   0.196
 4273SOL    HW119346   6.232   0.932   0.203
 4273SOL    HW219347   6.158   1.074   0.168
 4274SOL     OW19348   2.703   6.329   1.703
 4274SOL    HW119349   2.700   6.417   1.657
 4274SOL    HW219350   2.747   6.339   1.792
 4275SOL     OW19351   2.165   5.745   0.884
 4275SOL    HW119352   2.199   5.651   0.895
 4275SOL    HW219353   2.073   5.751   0.923
 4276SOL     OW19354   6.318   0.065   6.520
 4276SOL    HW119355   6.244   0.131   6.512
 4276SOL    HW219356   6.406   0.113   6.521
 4277SOL     OW19357   0.038   3.271   0.446
 4277SOL    HW119358   0.062   3.358   0.488
 4277SOL    HW219359   0.025   3.202   0.517
 4278SOL     OW19360   2.670   1.437   7.074
 4278SOL    HW119361   2.690   1.535   7.071
 4278SOL    HW219362   2.585   1.422   7.125
 4279SOL     OW19363   0.926   3.566   5.837
 4279SOL    HW119364   0.979   3.544   5.755
 4279SOL    HW219365   0.979   3.542   5.918
 4280SOL     OW19366   5.394   5.799   6.297
 4280SOL    HW119367   5.351   5.886   6.321
 4280SOL    HW219368   5.329   5.725   6.310
 4281SOL     OW19369   3.486   1.823   0.940
 4281SOL    HW119370   3.584   1.843   0.933
 4281SOL    HW219371   3.439   1.901   0.980
 4282SOL     OW19372   5.461   3.352   0.783
 4282SOL    HW119373   5.517   3.286   0.732
 4282SOL    HW219374   5.519   3.426   0.817
 4283SOL     OW19375   2.610   5.384   1.138
 4283SOL    HW119376   2.661   5.426   1.213
 4283SOL    HW219377   2.624   5.438   1.054
 4284SOL     OW19378   3.843   2.347   5.376
 4284SOL    HW119379   3.853   2.353   5.277
 4284SOL    HW219380   3.869   2.434   5.418
 4285SOL     OW19381   3.685   3.114   1.520
 4285SOL    HW119382   3.607   3.172   1.496
 4285SOL    HW219383   3.670   3.022   1.486
 4286SOL     OW19384   6.542   0.114   0.559
 4286SOL    HW119385   6.444   0.097   0.567
 4286SOL    HW219386   6.562   0.154   0.470
 4287SOL     OW19387   1.282   1.494   6.906
 4287SOL    HW119388   1.263   1.541   6.992
 4287SOL    HW219389   1.381   1.491   6.891
 4288SOL     OW19390   4.745   6.238   7.131
 4288SOL    HW119391   4.796   6.319   7.100
 4288SOL    HW219392   4.808   6.161   7.139
 4289SOL     OW19393   0.262   1.120   6.973
 4289SOL    HW119394   0.183   1.159   6.926
 4289SOL    HW219395   0.256   1.140   7.071
 4290SOL     OW19396   2.822   3.889   0.156
 4290SOL    HW119397   2.798   3.881   0.060
 4290SOL    HW219398   2.908   3.842   0.173
 4291SOL     OW19399   3.237   2.188   1.457
 4291SOL    HW119400   3.155   2.132   1.452
 4291SOL    HW219401   3.213   2.281   1.486
 4292SOL     OW19402   0.655   1.411   5.461
 4292SOL    HW119403   0.620   1.500   5.432
 4292SOL    HW219404   0.691   1.362   5.382
 4293SOL     OW19405   4.580   3.108   0.952
 4293SOL    HW119406   4.572   3.019   0.907
 4293SOL    HW219407   4.553   3.180   0.888
 4294SOL     OW19408   2.099   2.147   0.967
 4294SOL    HW119409   2.124   2.108   0.878
 4294SOL    HW219410   2.173   2.130   1.032
 4295SOL     OW19411   0.206   3.972   1.296
 4295SOL    HW119412   0.117   3.947   1.334
 4295SOL    HW219413   0.246   4.045   1.351
 4296SOL     OW19414   3.385   0.327   7.040
 4296SOL    HW119415   3.345   0.406   6.995
 4296SOL    HW219416   3.314   0.257   7.054
 4297SOL     OW19417   1.411   0.575   0.383
 4297SOL    HW119418   1.378   0.595   0.475
 4297SOL    HW219419   1.333   0.568   0.320
 4298SOL     OW19420   2.429   3.286   1.236
 4298SOL    HW119421   2.427   3.356   1.307
 4298SOL    HW219422   2.341   3.284   1.190
 4299SOL     OW19423   0.982   2.134   7.319
 4299SOL    HW119424   0.921   2.057   7.306
 4299SOL    HW219425   1.061   2.125   7.258
 4300SOL     OW19426   6.336   4.966   5.431
 4300SOL    HW119427   6.411   5.023   5.466
 4300SOL    HW219428   6.371   4.875   5.409
 4301SOL     OW19429   1.772   0.219   6.659
 4301SOL    HW119430   1.817   0.133   6.635
 4301SOL    HW219431   1.690   0.200   6.712
 4302SOL     OW19432   3.294   3.990   0.910
 4302SOL    HW119433   3.237   4.004   0.829
 4302SOL    HW219434   3.236   3.982   0.991
 4303SOL     OW19435   0.417   2.327   1.836
 4303SOL    HW119436   0.338   2.276   1.804
 4303SOL    HW219437   0.406   2.349   1.933
 4304SOL     OW19438   4.562   2.554   5.224
 4304SOL    HW119439   4.623   2.477   5.206
 4304SOL    HW219440   4.591   2.633   5.171
 4305SOL     OW19441   3.353   6.441   6.487
 4305SOL    HW119442   3.340   6.448   6.388
 4305SOL    HW219443   3.408   0.042   6.519
 4306SOL     OW19444   4.110   0.966   0.127
 4306SOL    HW119445   4.132   1.064   0.120
 4306SOL    HW219446   4.084   0.944   0.221
 4307SOL     OW19447   0.661   0.319   6.890
 4307SOL    HW119448   0.589   0.257   6.862
 4307SOL    HW219449   0.649   0.408   6.845
 4308SOL     OW19450   6.078   3.133   1.500
 4308SOL    HW119451   6.140   3.070   1.454
 4308SOL    HW219452   6.132   3.203   1.548
 4309SOL     OW19453   2.117   3.766   0.595
 4309SOL    HW119454   2.172   3.750   0.678
 4309SOL    HW219455   2.097   3.678   0.551
 4310SOL     OW19456   1.593   0.653   6.417
 4310SOL    HW119457   1.497   0.630   6.405
 4310SOL    HW219458   1.638   0.584   6.474
 4311SOL     OW19459   2.303   4.926   0.266
 4311SOL    HW119460   2.331   4.851   0.326
 4311SOL    HW219461   2.385   4.971   0.229
 4312SOL     OW19462   6.259   2.963   1.401
 4312SOL    HW119463   6.352   2.990   1.424
 4312SOL    HW219464   6.260   2.905   1.319
 4313SOL     OW19465   1.083   5.474   7.342
 4313SOL    HW119466   1.133   5.553   7.377
 4313SOL    HW219467   0.996   5.504   7.303
 4314SOL     OW19468   1.676   1.897   5.652
 4314SOL    HW119469   1.766   1.926   5.620
 4314SOL    HW219470   1.606   1.934   5.591
 4315SOL     OW19471   1.233   1.997   6.111
 4315SOL    HW119472   1.156   1.966   6.165
 4315SOL    HW219473   1.204   2.009   6.016
 4316SOL     OW19474   2.529   3.609   7.358
 4316SOL    HW119475   2.599   3.583   7.292
 4316SOL    HW219476   2.489   3.528   7.399
 4317SOL     OW19477   2.839   1.528   7.376
 4317SOL    HW119478   2.880   1.539   0.052
 4317SOL    HW219479   2.899   1.568   7.307
 4318SOL     OW19480   1.618   0.747   0.753
 4318SOL    HW119481   1.631   0.667   0.693
 4318SOL    HW219482   1.693   0.753   0.818
 4319SOL     OW19483   5.684   1.616   7.303
 4319SOL    HW119484   5.626   1.593   7.381
 4319SOL    HW219485   5.652   1.702   7.262
 4320SOL     OW19486   6.325   4.087   0.773
 4320SOL    HW119487   6.391   4.012   0.773
 4320SOL    HW219488   6.343   4.147   0.695
 4321SOL     OW19489   5.754   6.341   0.292
 4321SOL    HW119490   5.742   6.279   0.215
 4321SOL    HW219491   5.848   6.377   0.291
 4322SOL     OW19492   5.729   3.552   0.805
 4322SOL    HW119493   5.756   3.463   0.768
 4322SOL    HW219494   5.811   3.607   0.823
 4323SOL     OW19495   4.689   0.499   0.824
 4323SOL    HW119496   4.788   0.511   0.834
 4323SOL    HW219497   4.667   0.472   0.730
 4324SOL     OW19498   4.863   1.941   1.074
 4324SOL    HW119499   4.813   1.996   1.141
 4324SOL    HW219500   4.893   1.855   1.115
 4325SOL     OW19501   5.390   1.694   0.583
 4325SOL    HW119502   5.300   1.690   0.540
 4325SOL    HW219503   5.380   1.723   0.678
 4326SOL     OW19504   0.764   4.235   6.070
 4326SOL    HW119505   0.710   4.152   6.057
 4326SOL    HW219506   0.828   4.245   5.994
 4327SOL     OW19507   0.019   0.534   0.294
 4327SOL    HW119508   0.109   0.578   0.291
 4327SOL    HW219509   6.545   0.564   0.217
 4328SOL     OW19510   1.252   3.339   6.510
 4328SOL    HW119511   1.178   3.272   6.520
 4328SOL    HW219512   1.259   3.394   6.593
 4329SOL     OW19513   1.101   6.128   7.106
 4329SOL    HW119514   1.037   6.070   7.157
 4329SOL    HW219515   1.125   6.207   7.162
 4330SOL     OW19516   3.470   5.702   7.192
 4330SOL    HW119517   3.474   5.732   7.097
 4330SOL    HW219518   3.552   5.733   7.241
 4331SOL     OW19519   1.066   5.347   0.173
 4331SOL    HW119520   0.988   5.390   0.217
 4331SOL    HW219521   1.074   5.381   0.079
 4332SOL     OW19522   6.371   5.561   5.697
 4332SOL    HW119523   6.450   5.589   5.641
 4332SOL    HW219524   6.341   5.638   5.752
 4333SOL     OW19525   5.866   0.503   5.867
 4333SOL    HW119526   5.893   0.585   5.918
 4333SOL    HW219527   5.794   0.455   5.917
 4334SOL     OW19528   1.532   4.986   5.224
 4334SOL    HW119529   1.523   4.887   5.217
 4334SOL    HW219530   1.452   5.030   5.182
 4335SOL     OW19531   3.991   0.126   7.095
 4335SOL    HW119532   4.040   0.042   7.120
 4335SOL    HW219533   3.916   0.103   7.033
 4336SOL     OW19534   3.813   1.082   5.369
 4336SOL    HW119535   3.861   1.169   5.380
 4336SOL    HW219536   3.801   1.062   5.271
 4337SOL     OW19537   2.078   2.741   0.120
 4337SOL    HW119538   2.081   2.816   0.186
 4337SOL    HW219539   2.058   2.656   0.168
 4338SOL     OW19540   1.770   1.941   6.612
 4338SOL    HW119541   1.716   2.021   6.586
 4338SOL    HW219542   1.833   1.917   6.538
 4339SOL     OW19543   3.794   1.737   0.836
 4339SOL    HW119544   3.761   1.679   0.911
 4339SOL    HW219545   3.767   1.696   0.748
 4340SOL     OW19546   1.313   5.422   0.267
 4340SOL    HW119547   1.375   5.430   0.189
 4340SOL    HW219548   1.223   5.394   0.236
 4341SOL     OW19549   6.138   4.672   5.304
 4341SOL    HW119550   6.111   4.758   5.260
 4341SOL    HW219551   6.057   4.628   5.343
 4342SOL     OW19552   4.449   5.759   5.697
 4342SOL    HW119553   4.525   5.816   5.665
 4342SOL    HW219554   4.429   5.689   5.629
 4343SOL     OW19555   3.062   4.212   0.932
 4343SOL    HW119556   2.963   4.228   0.943
 4343SOL    HW219557   3.078   4.157   0.850
 4344SOL     OW19558   6.382   1.254   6.808
 4344SOL    HW119559   6.359   1.347   6.837
 4344SOL    HW219560   6.337   1.234   6.721
 4345SOL     OW19561   5.665   3.288   1.029
 4345SOL    HW119562   5.603   3.247   1.096
 4345SOL    HW219563   5.686   3.382   1.056
 4346SOL     OW19564   1.502   5.123   2.134
 4346SOL    HW119565   1.502   5.110   2.233
 4346SOL    HW219566   1.532   5.038   2.089
 4347SOL     OW19567   5.816   6.127   6.798
 4347SOL    HW119568   5.853   6.037   6.821
 4347SOL    HW219569   5.836   6.190   6.873
 4348SOL     OW19570   5.960   4.907   1.246
 4348SOL    HW119571   6.045   4.858   1.269
 4348SOL    HW219572   5.972   4.952   1.157
 4349SOL     OW19573   4.253   0.114   1.305
 4349SOL    HW119574   4.326   0.178   1.329
 4349SOL    HW219575   4.169   0.166   1.287
 4350SOL     OW19576   2.309   5.870   1.091
 4350SOL    HW119577   2.400   5.829   1.090
 4350SOL    HW219578   2.258   5.840   1.010
 4351SOL     OW19579   0.992   5.227   0.547
 4351SOL    HW119580   1.057   5.295   0.514
 4351SOL    HW219581   0.956   5.254   0.636
 4352SOL     OW19582   0.049   1.370   7.107
 4352SOL    HW119583   0.051   1.345   7.011
 4352SOL    HW219584   6.541   1.350   7.146
 4353SOL     OW19585   4.981   4.351   7.095
 4353SOL    HW119586   4.909   4.341   7.026
 4353SOL    HW219587   5.057   4.289   7.074
 4354SOL     OW19588   6.352   2.649   6.358
 4354SOL    HW119589   6.434   2.604   6.393
 4354SOL    HW219590   6.369   2.747   6.350
 4355SOL     OW19591   5.907   1.283   6.935
 4355SOL    HW119592   5.831   1.331   6.979
 4355SOL    HW219593   5.903   1.186   6.959
 4356SOL     OW19594   1.041   6.232   0.787
 4356SOL    HW119595   1.140   6.221   0.777
 4356SOL    HW219596   1.000   6.253   0.698
 4357SOL     OW19597   2.783   5.462   6.658
 4357SOL    HW119598   2.717   5.529   6.624
 4357SOL    HW219599   2.868   5.469   6.605
 4358SOL     OW19600   5.050   0.115   0.261
 4358SOL    HW119601   5.004   0.158   0.339
 4358SOL    HW219602   5.118   0.178   0.223
 4359SOL     OW19603   1.580   2.780   6.552
 4359SOL    HW119604   1.643   2.732   6.492
 4359SOL    HW219605   1.539   2.857   6.502
 4360SOL     OW19606   4.949   5.726   0.112
 4360SOL    HW119607   4.981   5.688   0.199
 4360SOL    HW219608   4.896   5.657   0.063
 4361SOL     OW19609   6.340   0.211   6.076
 4361SOL    HW119610   6.241   0.200   6.083
 4361SOL    HW219611   6.375   0.253   6.159
 4362SOL     OW19612   6.267   1.838   7.092
 4362SOL    HW119613   6.341   1.784   7.053
 4362SOL    HW219614   6.212   1.878   7.019
 4363SOL     OW19615   0.328   5.516   6.661
 4363SOL    HW119616   0.423   5.541   6.645
 4363SOL    HW219617   0.288   5.482   6.576
 4364SOL     OW19618   2.170   3.412   1.187
 4364SOL    HW119619   2.173   3.413   1.287
 4364SOL    HW219620   2.075   3.415   1.156
 4365SOL     OW19621   2.857   3.230   6.466
 4365SOL    HW119622   2.810   3.165   6.526
 4365SOL    HW219623   2.789   3.286   6.417
 4366SOL     OW19624   0.109   2.833   7.120
 4366SOL    HW119625   0.088   2.869   7.211
 4366SOL    HW219626   0.054   2.881   7.052
 4367SOL     OW19627   0.609   2.439   6.917
 4367SOL    HW119628   0.593   2.387   6.833
 4367SOL    HW219629   0.526   2.437   6.973
 4368SOL     OW19630   0.160   0.788   0.895
 4368SOL    HW119631   0.119   0.875   0.921
 4368SOL    HW219632   0.179   0.787   0.797
 4369SOL     OW19633   4.249   4.314   2.000
 4369SOL    HW119634   4.162   4.266   1.999
 4369SOL    HW219635   4.290   4.309   2.091
 4370SOL     OW19636   6.342   0.372   5.319
 4370SOL    HW119637   6.363   0.328   5.406
 4370SOL    HW219638   6.410   0.345   5.251
 4371SOL     OW19639   0.624   3.247   1.020
 4371SOL    HW119640   0.696   3.310   0.992
 4371SOL    HW219641   0.570   3.220   0.940
 4372SOL     OW19642   3.747   0.029   0.196
 4372SOL    HW119643   3.829   6.462   0.156
 4372SOL    HW219644   3.776   0.103   0.257
 4373SOL     OW19645   3.372   5.302   6.461
 4373SOL    HW119646   3.355   5.328   6.557
 4373SOL    HW219647   3.432   5.370   6.418
 4374SOL     OW19648   2.093   0.986   7.019
 4374SOL    HW119649   2.006   0.944   7.046
 4374SOL    HW219650   2.169   0.934   7.058
 4375SOL     OW19651   4.834   6.183   0.944
 4375SOL    HW119652   4.867   6.115   1.010
 4375SOL    HW219653   4.861   6.156   0.852
 4376SOL     OW19654   1.936   5.198   0.212
 4376SOL    HW119655   1.856   5.186   0.271
 4376SOL    HW219656   2.003   5.256   0.258
 4377SOL     OW19657   6.389   1.072   6.380
 4377SOL    HW119658   6.337   0.990   6.402
 4377SOL    HW219659   6.420   1.068   6.285
 4378SOL     OW19660   0.771   0.742   1.772
 4378SOL    HW119661   0.809   0.826   1.812
 4378SOL    HW219662   0.734   0.685   1.845
 4379SOL     OW19663   4.755   4.010   0.471
 4379SOL    HW119664   4.743   4.091   0.414
 4379SOL    HW219665   4.789   3.934   0.415
 4380SOL     OW19666   6.457   5.985   0.084
 4380SOL    HW119667   6.373   6.017   0.129
 4380SOL    HW219668   6.434   5.945   7.410
 4381SOL     OW19669   2.185   4.368   6.328
 4381SOL    HW119670   2.278   4.334   6.318
 4381SOL    HW219671   2.176   4.455   6.279
 4382SOL     OW19672   5.541   4.242   6.359
 4382SOL    HW119673   5.478   4.168   6.338
 4382SOL    HW219674   5.624   4.233   6.303
 4383SOL     OW19675   3.592   1.929   1.762
 4383SOL    HW119676   3.522   1.992   1.728
 4383SOL    HW219677   3.668   1.982   1.800
 4384SOL     OW19678   1.178   6.308   0.100
 4384SOL    HW119679   1.175   6.400   0.139
 4384SOL    HW219680   1.147   6.242   0.168
 4385SOL     OW19681   0.432   1.530   1.069
 4385SOL    HW119682   0.490   1.609   1.090
 4385SOL    HW219683   0.337   1.559   1.063
 4386SOL     OW19684   3.763   1.497   6.940
 4386SOL    HW119685   3.716   1.475   6.854
 4386SOL    HW219686   3.716   1.451   7.016
 4387SOL     OW19687   1.012   5.099   0.286
 4387SOL    HW119688   1.000   5.129   0.381
 4387SOL    HW219689   1.040   5.177   0.230
 4388SOL     OW19690   2.175   3.167   0.806
 4388SOL    HW119691   2.169   3.106   0.884
 4388SOL    HW219692   2.239   3.241   0.826
 4389SOL     OW19693   0.324   2.382   6.311
 4389SOL    HW119694   0.255   2.311   6.302
 4389SOL    HW219695   0.408   2.354   6.266
 4390SOL     OW19696   5.378   1.191   0.355
 4390SOL    HW119697   5.411   1.226   0.443
 4390SOL    HW219698   5.291   1.144   0.369
 4391SOL     OW19699   0.566   6.473   7.238
 4391SOL    HW119700   0.506   6.393   7.243
 4391SOL    HW219701   0.514   0.079   7.262
 4392SOL     OW19702   1.802   0.334   7.397
 4392SOL    HW119703   1.848   0.420   0.000
 4392SOL    HW219704   1.844   0.288   7.319
 4393SOL     OW19705   1.637   5.061   0.017
 4393SOL    HW119706   1.679   4.972   0.034
 4393SOL    HW219707   1.708   5.127   7.407
 4394SOL     OW19708   6.286   4.267   0.984
 4394SOL    HW119709   6.287   4.198   0.912
 4394SOL    HW219710   6.204   4.255   1.040
 4395SOL     OW19711   5.564   3.947   7.194
 4395SOL    HW119712   5.625   3.884   7.146
 4395SOL    HW219713   5.548   4.028   7.137
 4396SOL     OW19714   2.030   4.066   1.455
 4396SOL    HW119715   1.973   4.129   1.401
 4396SOL    HW219716   2.002   3.972   1.437
 4397SOL     OW19717   1.484   0.050   6.446
 4397SOL    HW119718   1.539   0.091   6.373
 4397SOL    HW219719   1.387   0.062   6.425
 4398SOL     OW19720   4.676   5.698   1.586
 4398SOL    HW119721   4.639   5.744   1.505
 4398SOL    HW219722   4.660   5.755   1.667
 4399SOL     OW19723   2.548   5.740   1.068
 4399SOL    HW119724   2.626   5.802   1.064
 4399SOL    HW219725   2.562   5.665   1.004
 4400SOL     OW19726   3.515   6.388   1.764
 4400SOL    HW119727   3.512   6.416   1.860
 4400SOL    HW219728   3.451   6.444   1.711
 4401SOL     OW19729   0.019   0.895   1.681
 4401SOL    HW119730   0.106   0.940   1.700
 4401SOL    HW219731   6.563   0.857   1.765
 4402SOL     OW19732   0.874   1.569   1.366
 4402SOL    HW119733   0.905   1.609   1.452
 4402SOL    HW219734   0.847   1.642   1.303
 4403SOL     OW19735   5.522   3.083   0.419
 4403SOL    HW119736   5.484   3.011   0.476
 4403SOL    HW219737   5.567   3.152   0.476
 4404SOL     OW19738   1.985   6.192   1.009
 4404SOL    HW119739   1.924   6.223   0.936
 4404SOL    HW219740   1.950   6.107   1.048
 4405SOL     OW19741   4.870   5.393   0.693
 4405SOL    HW119742   4.866   5.307   0.643
 4405SOL    HW219743   4.823   5.465   0.641
 4406SOL     OW19744   5.242   2.488   0.115
 4406SOL    HW119745   5.280   2.580   0.103
 4406SOL    HW219746   5.311   2.430   0.158
 4407SOL     OW19747   0.490   0.505   0.915
 4407SOL    HW119748   0.455   0.592   0.950
 4407SOL    HW219749   0.562   0.523   0.848
 4408SOL     OW19750   0.956   5.502   5.759
 4408SOL    HW119751   0.973   5.582   5.818
 4408SOL    HW219752   0.859   5.494   5.741
 4409SOL     OW19753   3.014   2.029   1.439
 4409SOL    HW119754   3.019   1.932   1.466
 4409SOL    HW219755   2.926   2.067   1.467
 4410SOL     OW19756   4.769   4.821   6.261
 4410SOL    HW119757   4.802   4.908   6.224
 4410SOL    HW219758   4.687   4.793   6.211
 4411SOL     OW19759   0.383   3.135   6.697
 4411SOL    HW119760   0.322   3.139   6.776
 4411SOL    HW219761   0.330   3.138   6.613
 4412SOL     OW19762   3.324   2.589   6.179
 4412SOL    HW119763   3.405   2.574   6.123
 4412SOL    HW219764   3.345   2.654   6.252
 4413SOL     OW19765   5.661   1.319   5.756
 4413SOL    HW119766   5.664   1.252   5.681
 4413SOL    HW219767   5.699   1.406   5.724
 4414SOL     OW19768   4.576   4.712   6.781
 4414SOL    HW119769   4.542   4.778   6.848
 4414SOL    HW219770   4.601   4.759   6.697
 4415SOL     OW19771   1.742   0.390   6.007
 4415SOL    HW119772   1.785   0.376   6.096
 4415SOL    HW219773   1.758   0.310   5.949
 4416SOL     OW19774   3.864   1.539   1.378
 4416SOL    HW119775   3.796   1.477   1.339
 4416SOL    HW219776   3.823   1.588   1.455
 4417SOL     OW19777   3.269   6.288   0.613
 4417SOL    HW119778   3.199   6.239   0.561
 4417SOL    HW219779   3.254   6.274   0.711
 4418SOL     OW19780   4.220   1.590   0.364
 4418SOL    HW119781   4.131   1.614   0.401
 4418SOL    HW219782   4.291   1.612   0.432
 4419SOL     OW19783   3.343   2.777   6.612
 4419SOL    HW119784   3.247   2.805   6.619
 4419SOL    HW219785   3.367   2.765   6.516
 4420SOL     OW19786   0.004   4.858   6.692
 4420SOL    HW119787   6.507   4.888   6.746
 4420SOL    HW219788   0.048   4.937   6.650
 4421SOL     OW19789   2.020   0.913   0.417
 4421SOL    HW119790   2.065   1.002   0.423
 4421SOL    HW219791   2.087   0.841   0.431
 4422SOL     OW19792   1.087   3.598   1.437
 4422SOL    HW119793   1.016   3.557   1.380
 4422SOL    HW219794   1.094   3.548   1.523
 4423SOL     OW19795   6.316   2.938   0.250
 4423SOL    HW119796   6.324   3.038   0.247
 4423SOL    HW219797   6.241   2.913   0.311
 4424SOL     OW19798   0.539   1.644   5.366
 4424SOL    HW119799   0.446   1.615   5.344
 4424SOL    HW219800   0.577   1.696   5.289
 4425SOL     OW19801   2.716   2.372   6.623
 4425SOL    HW119802   2.757   2.443   6.681
 4425SOL    HW219803   2.708   2.406   6.530
 4426SOL     OW19804   3.695   3.785   6.968
 4426SOL    HW119805   3.628   3.778   7.042
 4426SOL    HW219806   3.779   3.827   7.002
 4427SOL     OW19807   2.137   5.810   1.291
 4427SOL    HW119808   2.182   5.838   1.375
 4427SOL    HW219809   2.193   5.836   1.213
 4428SOL     OW19810   5.268   5.426   7.365
 4428SOL    HW119811   5.254   5.354   0.018
 4428SOL    HW219812   5.356   5.412   7.319
 4429SOL     OW19813   0.462   6.336   0.216
 4429SOL    HW119814   0.480   6.257   0.274
 4429SOL    HW219815   0.547   6.389   0.205
 4430SOL     OW19816   6.043   3.475   0.277
 4430SOL    HW119817   6.142   3.466   0.282
 4430SOL    HW219818   6.013   3.461   0.183
 4431SOL     OW19819   2.426   2.075   7.073
 4431SOL    HW119820   2.424   2.170   7.105
 4431SOL    HW219821   2.347   2.026   7.111
 4432SOL     OW19822   1.251   2.744   0.485
 4432SOL    HW119823   1.196   2.818   0.524
 4432SOL    HW219824   1.192   2.680   0.436
 4433SOL     OW19825   3.889   1.355   1.965
 4433SOL    HW119826   3.850   1.264   1.954
 4433SOL    HW219827   3.976   1.349   2.014
 4434SOL     OW19828   3.231   2.057   6.324
 4434SOL    HW119829   3.235   2.154   6.300
 4434SOL    HW219830   3.324   2.022   6.337
 4435SOL     OW19831   4.921   6.014   1.150
 4435SOL    HW119832   4.879   5.925   1.133
 4435SOL    HW219833   4.892   6.047   1.240
 4436SOL     OW19834   2.601   0.771   0.031
 4436SOL    HW119835   2.700   0.757   0.036
 4436SOL    HW219836   2.579   0.866   0.052
 4437SOL     OW19837   5.498   3.562   1.272
 4437SOL    HW119838   5.572   3.567   1.205
 4437SOL    HW219839   5.512   3.483   1.332
 4438SOL     OW19840   4.564   3.762   0.788
 4438SOL    HW119841   4.512   3.803   0.862
 4438SOL    HW219842   4.550   3.814   0.704
 4439SOL     OW19843   1.285   4.318   0.180
 4439SOL    HW119844   1.236   4.360   0.256
 4439SOL    HW219845   1.344   4.245   0.214
 4440SOL     OW19846   4.162   4.134   6.878
 4440SOL    HW119847   4.120   4.046   6.859
 4440SOL    HW219848   4.090   4.202   6.894
 4441SOL     OW19849   0.389   4.893   6.234
 4441SOL    HW119850   0.330   4.815   6.253
 4441SOL    HW219851   0.429   4.883   6.143
 4442SOL     OW19852   4.071   5.878   6.427
 4442SOL    HW119853   4.035   5.948   6.365
 4442SOL    HW219854   4.141   5.824   6.380
 4443SOL     OW19855   5.998   2.694   1.306
 4443SOL    HW119856   6.083   2.717   1.258
 4443SOL    HW219857   5.958   2.776   1.346
 4444SOL     OW19858   0.028   2.901   7.378
 4444SOL    HW119859   0.094   2.870   0.031
 4444SOL    HW219860   6.534   2.836   7.373
 4445SOL     OW19861   3.372   5.597   0.837
 4445SOL    HW119862   3.408   5.689   0.820
 4445SOL    HW219863   3.308   5.573   0.763
 4446SOL     OW19864   5.827   5.469   6.121
 4446SOL    HW119865   5.886   5.496   6.046
 4446SOL    HW219866   5.796   5.551   6.170
 4447SOL     OW19867   1.431   5.588   1.575
 4447SOL    HW119868   1.366   5.662   1.562
 4447SOL    HW219869   1.450   5.577   1.673
 4448SOL     OW19870   6.509   0.988   5.547
 4448SOL    HW119871   6.545   0.901   5.581
 4448SOL    HW219872   6.576   1.061   5.565
 4449SOL     OW19873   4.827   3.617   1.695
 4449SOL    HW119874   4.795   3.642   1.786
 4449SOL    HW219875   4.905   3.674   1.670
 4450SOL     OW19876   5.205   2.662   0.909
 4450SOL    HW119877   5.277   2.679   0.976
 4450SOL    HW219878   5.215   2.569   0.872
 4451SOL     OW19879   4.121   2.563   7.223
 4451SOL    HW119880   4.155   2.656   7.208
 4451SOL    HW219881   4.022   2.567   7.242
 4452SOL     OW19882   5.735   4.892   1.393
 4452SOL    HW119883   5.769   4.886   1.486
 4452SOL    HW219884   5.812   4.890   1.329
 4453SOL     OW19885   1.055   2.722   6.552
 4453SOL    HW119886   1.135   2.762   6.598
 4453SOL    HW219887   1.084   2.676   6.468
 4454SOL     OW19888   0.377   3.672   0.712
 4454SOL    HW119889   0.369   3.646   0.809
 4454SOL    HW219890   0.382   3.590   0.656
 4455SOL     OW19891   1.924   2.491   6.579
 4455SOL    HW119892   1.958   2.400   6.556
 4455SOL    HW219893   1.951   2.515   6.672
 4456SOL     OW19894   1.580   0.221   0.790
 4456SOL    HW119895   1.670   0.185   0.766
 4456SOL    HW219896   1.580   0.250   0.886
 4457SOL     OW19897   5.530   3.342   1.447
 4457SOL    HW119898   5.578   3.261   1.483
 4457SOL    HW219899   5.530   3.414   1.516
 4458SOL     OW19900   0.413   5.334   5.984
 4458SOL    HW119901   0.479   5.371   6.049
 4458SOL    HW219902   0.459   5.314   5.897
 4459SOL     OW19903   2.857   2.594   7.253
 4459SOL    HW119904   2.775   2.650   7.270
 4459SOL    HW219905   2.923   2.610   7.326
 4460SOL     OW19906   0.835   0.112   6.830
 4460SOL    HW119907   0.796   0.202   6.851
 4460SOL    HW219908   0.794   0.043   6.890
 4461SOL     OW19909   3.987   5.994   5.298
 4461SOL    HW119910   4.040   6.036   5.224
 4461SOL    HW219911   4.027   5.906   5.322
 4462SOL     OW19912   1.091   2.566   0.344
 4462SOL    HW119913   1.046   2.478   0.359
 4462SOL    HW219914   1.030   2.626   0.291
 4463SOL     OW19915   3.626   3.314   6.877
 4463SOL    HW119916   3.693   3.388   6.866
 4463SOL    HW219917   3.665   3.230   6.840
 4464SOL     OW19918   3.085   1.956   7.234
 4464SOL    HW119919   3.128   2.005   7.158
 4464SOL    HW219920   2.986   1.956   7.221
 4465SOL     OW19921   0.259   5.066   0.895
 4465SOL    HW119922   0.280   4.996   0.963
 4465SOL    HW219923   0.322   5.143   0.906
 4466SOL     OW19924   5.348   5.740   5.121
 4466SOL    HW119925   5.255   5.767   5.094
 4466SOL    HW219926   5.411   5.815   5.103
 4467SOL     OW19927   2.044   0.629   6.450
 4467SOL    HW119928   1.990   0.648   6.368
 4467SOL    HW219929   1.983   0.623   6.529
 4468SOL     OW19930   5.679   4.690   1.065
 4468SOL    HW119931   5.630   4.776   1.078
 4468SOL    HW219932   5.642   4.641   0.986
 4469SOL     OW19933   0.010   5.858   1.038
 4469SOL    HW119934   0.064   5.890   0.960
 4469SOL    HW219935   6.500   5.833   1.006
 4470SOL     OW19936   5.721   1.110   1.788
 4470SOL    HW119937   5.762   1.150   1.870
 4470SOL    HW219938   5.622   1.125   1.789
 4471SOL     OW19939   0.524   0.515   6.245
 4471SOL    HW119940   0.572   0.428   6.237
 4471SOL    HW219941   0.583   0.589   6.211
 4472SOL     OW19942   1.262   2.199   5.636
 4472SOL    HW119943   1.228   2.293   5.630
 4472SOL    HW219944   1.268   2.160   5.544
 4473SOL     OW19945   5.350   5.473   6.994
 4473SOL    HW119946   5.383   5.458   7.088
 4473SOL    HW219947   5.304   5.390   6.962
 4474SOL     OW19948   5.426   2.694   1.075
 4474SOL    HW119949   5.499   2.649   1.023
 4474SOL    HW219950   5.464   2.736   1.157
 4475SOL     OW19951   5.116   2.343   1.065
 4475SOL    HW119952   5.037   2.394   1.101
 4475SOL    HW219953   5.105   2.246   1.089
 4476SOL     OW19954   5.347   6.406   1.669
 4476SOL    HW119955   5.280   6.337   1.699
 4476SOL    HW219956   5.407   6.429   1.745
 4477SOL     OW19957   6.072   4.919   7.061
 4477SOL    HW119958   6.046   4.915   6.965
 4477SOL    HW219959   6.007   4.866   7.116
 4478SOL     OW19960   6.143   0.719   6.900
 4478SOL    HW119961   6.149   0.697   6.998
 4478SOL    HW219962   6.235   0.718   6.860
 4479SOL     OW19963   5.967   3.843   5.646
 4479SOL    HW119964   5.930   3.830   5.555
 4479SOL    HW219965   6.066   3.825   5.645
 4480SOL     OW19966   3.384   0.496   0.690
 4480SOL    HW119967   3.423   0.588   0.688
 4480SOL    HW219968   3.453   0.430   0.659
 4481SOL     OW19969   1.420   5.404   0.701
 4481SOL    HW119970   1.330   5.423   0.740
 4481SOL    HW219971   1.434   5.459   0.619
 4482SOL     OW19972   2.505   2.469   0.191
 4482SOL    HW119973   2.429   2.414   0.227
 4482SOL    HW219974   2.587   2.412   0.183
 4483SOL     OW19975   5.572   4.133   0.435
 4483SOL    HW119976   5.547   4.178   0.520
 4483SOL    HW219977   5.658   4.171   0.401
 4484SOL     OW19978   0.455   2.049   0.616
 4484SOL    HW119979   0.537   1.993   0.618
 4484SOL    HW219980   0.382   1.999   0.569
 4485SOL     OW19981   0.820   5.597   6.079
 4485SOL    HW119982   0.870   5.646   6.007
 4485SOL    HW219983   0.856   5.625   6.169
 4486SOL     OW19984   6.152   6.014   6.923
 4486SOL    HW119985   6.168   6.096   6.977
 4486SOL    HW219986   6.196   5.936   6.967
 4487SOL     OW19987   0.972   5.103   5.959
 4487SOL    HW119988   1.002   5.034   6.025
 4487SOL    HW219989   0.976   5.193   6.003
 4488SOL     OW19990   4.117   4.657   0.784
 4488SOL    HW119991   4.097   4.739   0.836
 4488SOL    HW219992   4.151   4.682   0.693
 4489SOL     OW19993   4.248   5.985   6.609
 4489SOL    HW119994   4.177   5.936   6.558
 4489SOL    HW219995   4.246   6.082   6.582
 4490SOL     OW19996   4.926   4.208   6.667
 4490SOL    HW119997   4.954   4.300   6.639
 4490SOL    HW219998   5.007   4.149   6.672
 4491SOL     OW19999   1.636   3.784   5.742
 4491SOL    HW120000   1.693   3.855   5.701
 4491SOL    HW220001   1.692   3.704   5.764
 4492SOL     OW20002   3.199   0.973   5.543
 4492SOL    HW120003   3.150   0.892   5.514
 4492SOL    HW220004   3.262   1.002   5.471
 4493SOL     OW20005   2.645   6.261   6.980
 4493SOL    HW120006   2.647   6.226   7.074
 4493SOL    HW220007   2.679   6.355   6.978
 4494SOL     OW20008   2.848   4.880   0.631
 4494SOL    HW120009   2.813   4.907   0.541
 4494SOL    HW220010   2.773   4.881   0.697
 4495SOL     OW20011   4.510   0.305   0.344
 4495SOL    HW120012   4.465   0.217   0.362
 4495SOL    HW220013   4.459   0.354   0.274
 4496SOL     OW20014   3.792   4.289   6.306
 4496SOL    HW120015   3.828   4.288   6.399
 4496SOL    HW220016   3.855   4.243   6.244
 4497SOL     OW20017   2.595   3.295   1.012
 4497SOL    HW120018   2.590   3.212   0.956
 4497SOL    HW220019   2.537   3.283   1.093
 4498SOL     OW20020   6.068   4.262   1.163
 4498SOL    HW120021   5.975   4.250   1.128
 4498SOL    HW220022   6.071   4.344   1.219
 4499SOL     OW20023   2.630   4.198   0.379
 4499SOL    HW120024   2.575   4.280   0.398
 4499SOL    HW220025   2.590   4.148   0.303
 4500SOL     OW20026   0.596   5.798   1.852
 4500SOL    HW120027   0.542   5.875   1.885
 4500SOL    HW220028   0.551   5.713   1.878
 4501SOL     OW20029   1.330   1.087   5.808
 4501SOL    HW120030   1.403   1.029   5.772
 4501SOL    HW220031   1.361   1.129   5.894
 4502SOL     OW20032   4.477   0.950   0.262
 4502SOL    HW120033   4.557   0.892   0.278
 4502SOL    HW220034   4.434   0.925   0.175
 4503SOL     OW20035   0.556   2.320   6.164
 4503SOL    HW120036   0.590   2.308   6.071
 4503SOL    HW220037   0.582   2.410   6.198
 4504SOL     OW20038   2.798   1.134   5.516
 4504SOL    HW120039   2.860   1.189   5.573
 4504SOL    HW220040   2.781   1.046   5.562
 4505SOL     OW20041   2.676   4.776   5.979
 4505SOL    HW120042   2.583   4.746   5.957
 4505SOL    HW220043   2.735   4.764   5.898
 4506SOL     OW20044   3.784   3.879   6.426
 4506SOL    HW120045   3.752   3.926   6.343
 4506SOL    HW220046   3.829   3.794   6.401
 4507SOL     OW20047   1.758   1.439   0.372
 4507SOL    HW120048   1.795   1.383   0.299
 4507SOL    HW220049   1.661   1.457   0.354
 4508SOL     OW20050   0.158   0.411   6.952
 4508SOL    HW120051   0.115   0.341   7.009
 4508SOL    HW220052   0.249   0.431   6.987
 4509SOL     OW20053   2.161   3.349   0.141
 4509SOL    HW120054   2.139   3.443   0.169
 4509SOL    HW220055   2.084   3.312   0.088
 4510SOL     OW20056   2.292   2.267   5.982
 4510SOL    HW120057   2.303   2.356   6.026
 4510SOL    HW220058   2.235   2.277   5.900
 4511SOL     OW20059   4.266   3.503   6.742
 4511SOL    HW120060   4.302   3.454   6.662
 4511SOL    HW220061   4.194   3.449   6.785
 4512SOL     OW20062   0.878   0.142   5.947
 4512SOL    HW120063   0.826   0.058   5.961
 4512SOL    HW220064   0.839   0.194   5.872
 4513SOL     OW20065   4.817   3.937   0.067
 4513SOL    HW120066   4.895   3.977   0.115
 4513SOL    HW220067   4.798   3.991   7.400
 4514SOL     OW20068   1.550   1.879   1.283
 4514SOL    HW120069   1.547   1.781   1.265
 4514SOL    HW220070   1.456   1.915   1.284
 4515SOL     OW20071   3.103   3.359   7.399
 4515SOL    HW120072   3.193   3.316   7.398
 4515SOL    HW220073   3.084   3.400   7.310
 4516SOL     OW20074   6.041   2.377   7.166
 4516SOL    HW120075   5.947   2.361   7.197
 4516SOL    HW220076   6.103   2.374   7.245
 4517SOL     OW20077   0.143   0.552   1.038
 4517SOL    HW120078   0.152   0.635   0.983
 4517SOL    HW220079   0.046   0.530   1.049
 4518SOL     OW20080   0.841   1.458   0.020
 4518SOL    HW120081   0.882   1.389   7.374
 4518SOL    HW220082   0.816   1.538   7.380
 4519SOL     OW20083   3.298   3.222   0.624
 4519SOL    HW120084   3.395   3.205   0.610
 4519SOL    HW220085   3.281   3.238   0.721
 4520SOL     OW20086   6.507   1.467   1.053
 4520SOL    HW120087   6.443   1.534   1.091
 4520SOL    HW220088   6.470   1.429   0.968
 4521SOL     OW20089   4.451   2.224   6.898
 4521SOL    HW120090   4.435   2.277   6.814
 4521SOL    HW220091   4.461   2.286   6.975
 4522SOL     OW20092   1.437   5.528   6.524
 4522SOL    HW120093   1.480   5.578   6.449
 4522SOL    HW220094   1.478   5.437   6.530
 4523SOL     OW20095   0.103   1.959   0.573
 4523SOL    HW120096   0.011   1.920   0.563
 4523SOL    HW220097   0.170   1.898   0.532
 4524SOL     OW20098   0.248   5.206   0.026
 4524SOL    HW120099   0.317   5.206   7.368
 4524SOL    HW220100   0.159   5.230   7.402
 4525SOL     OW20101   2.604   4.989   1.554
 4525SOL    HW120102   2.625   4.892   1.541
 4525SOL    HW220103   2.507   5.000   1.574
 4526SOL     OW20104   0.879   4.977   5.742
 4526SOL    HW120105   0.912   5.035   5.817
 4526SOL    HW220106   0.946   4.906   5.723
 4527SOL     OW20107   2.444   4.530   6.981
 4527SOL    HW120108   2.490   4.540   7.069
 4527SOL    HW220109   2.382   4.607   6.966
 4528SOL     OW20110   3.036   6.428   0.380
 4528SOL    HW120111   3.119   6.475   0.350
 4528SOL    HW220112   3.053   6.329   0.383
 4529SOL     OW20113   6.135   2.905   6.031
 4529SOL    HW120114   6.059   2.867   5.979
 4529SOL    HW220115   6.121   3.004   6.044
 4530SOL     OW20116   4.359   0.888   0.023
 4530SOL    HW120117   4.366   0.803   7.386
 4530SOL    HW220118   4.264   0.904   0.049
 4531SOL     OW20119   4.638   2.152   0.387
 4531SOL    HW120120   4.586   2.094   0.325
 4531SOL    HW220121   4.596   2.148   0.478
 4532SOL     OW20122   1.661   5.810   0.048
 4532SOL    HW120123   1.746   5.758   0.061
 4532SOL    HW220124   1.683   5.899   0.008
 4533SOL     OW20125   5.381   5.276   5.246
 4533SOL    HW120126   5.410   5.235   5.159
 4533SOL    HW220127   5.334   5.207   5.301
 4534SOL     OW20128   2.224   3.164   0.334
 4534SOL    HW120129   2.234   3.213   0.421
 4534SOL    HW220130   2.203   3.230   0.261
 4535SOL     OW20131   2.566   2.541   5.898
 4535SOL    HW120132   2.636   2.512   5.833
 4535SOL    HW220133   2.588   2.633   5.932
 4536SOL     OW20134   4.585   1.993   6.210
 4536SOL    HW120135   4.497   2.027   6.243
 4536SOL    HW220136   4.643   1.969   6.288
 4537SOL     OW20137   2.957   2.710   0.520
 4537SOL    HW120138   2.914   2.626   0.486
 4537SOL    HW220139   2.939   2.784   0.455
 4538SOL     OW20140   6.523   0.413   7.213
 4538SOL    HW120141   6.550   0.469   7.292
 4538SOL    HW220142   6.579   0.330   7.210
 4539SOL     OW20143   1.190   1.197   6.551
 4539SOL    HW120144   1.256   1.272   6.558
 4539SOL    HW220145   1.236   1.115   6.518
 4540SOL     OW20146   2.306   3.512   6.194
 4540SOL    HW120147   2.260   3.424   6.194
 4540SOL    HW220148   2.269   3.569   6.267
 4541SOL     OW20149   6.290   1.264   0.592
 4541SOL    HW120150   6.293   1.300   0.499
 4541SOL    HW220151   6.199   1.227   0.611
 4542SOL     OW20152   0.403   4.919   7.315
 4542SOL    HW120153   0.356   4.887   7.397
 4542SOL    HW220154   0.379   4.860   7.238
 4543SOL     OW20155   0.532   4.064   5.777
 4543SOL    HW120156   0.557   4.001   5.704
 4543SOL    HW220157   0.576   4.152   5.762
 4544SOL     OW20158   4.019   2.927   1.053
 4544SOL    HW120159   3.965   2.925   1.137
 4544SOL    HW220160   4.020   3.019   1.015
 4545SOL     OW20161   1.156   3.807   5.918
 4545SOL    HW120162   1.180   3.774   6.010
 4545SOL    HW220163   1.231   3.786   5.855
 4546SOL     OW20164   1.834   6.285   0.791
 4546SOL    HW120165   1.835   6.375   0.748
 4546SOL    HW220166   1.840   6.214   0.721
 4547SOL     OW20167   4.171   2.281   1.099
 4547SOL    HW120168   4.226   2.267   1.182
 4547SOL    HW220169   4.100   2.349   1.117
 4548SOL     OW20170   2.401   5.805   0.729
 4548SOL    HW120171   2.448   5.892   0.745
 4548SOL    HW220172   2.320   5.800   0.788
 4549SOL     OW20173   3.650   6.401   7.146
 4549SOL    HW120174   3.557   6.367   7.152
 4549SOL    HW220175   3.667   6.464   7.222
 4550SOL     OW20176   3.251   5.637   6.583
 4550SOL    HW120177   3.341   5.661   6.547
 4550SOL    HW220178   3.204   5.720   6.613
 4551SOL     OW20179   2.633   0.770   1.151
 4551SOL    HW120180   2.576   0.852   1.156
 4551SOL    HW220181   2.671   0.750   1.241
 4552SOL     OW20182   4.828   5.764   1.101
 4552SOL    HW120183   4.744   5.722   1.067
 4552SOL    HW220184   4.907   5.718   1.062
 4553SOL     OW20185   5.721   0.841   0.184
 4553SOL    HW120186   5.745   0.819   0.278
 4553SOL    HW220187   5.653   0.914   0.182
 4554SOL     OW20188   6.462   0.860   0.499
 4554SOL    HW120189   6.505   0.775   0.532
 4554SOL    HW220190   6.414   0.904   0.574
 4555SOL     OW20191   1.557   2.672   0.840
 4555SOL    HW120192   1.652   2.686   0.813
 4555SOL    HW220193   1.537   2.574   0.841
 4556SOL     OW20194   4.449   1.056   6.520
 4556SOL    HW120195   4.378   1.027   6.585
 4556SOL    HW220196   4.494   0.975   6.482
 4557SOL     OW20197   1.558   1.466   6.903
 4557SOL    HW120198   1.638   1.509   6.862
 4557SOL    HW220199   1.557   1.484   7.002
 4558SOL     OW20200   4.366   1.659   6.314
 4558SOL    HW120201   4.460   1.677   6.283
 4558SOL    HW220202   4.362   1.668   6.413
 4559SOL     OW20203   3.279   2.417   2.016
 4559SOL    HW120204   3.335   2.350   1.966
 4559SOL    HW220205   3.326   2.443   2.100
 4560SOL     OW20206   0.469   0.856   7.338
 4560SOL    HW120207   0.474   0.943   7.288
 4560SOL    HW220208   0.458   0.876   0.021
 4561SOL     OW20209   3.516   4.578   0.579
 4561SOL    HW120210   3.514   4.645   0.653
 4561SOL    HW220211   3.450   4.505   0.598
 4562SOL     OW20212   5.022   1.109   0.654
 4562SOL    HW120213   5.022   1.040   0.726
 4562SOL    HW220214   5.084   1.183   0.679
 4563SOL     OW20215   4.885   1.959   5.858
 4563SOL    HW120216   4.799   1.938   5.904
 4563SOL    HW220217   4.937   1.875   5.845
 4564SOL     OW20218   0.590   5.134   0.484
 4564SOL    HW120219   0.617   5.189   0.405
 4564SOL    HW220220   0.493   5.113   0.478
 4565SOL     OW20221   5.229   5.679   0.052
 4565SOL    HW120222   5.132   5.705   0.048
 4565SOL    HW220223   5.242   5.592   0.005
 4566SOL     OW20224   4.529   4.591   0.630
 4566SOL    HW120225   4.440   4.551   0.654
 4566SOL    HW220226   4.602   4.539   0.675
 4567SOL     OW20227   2.599   5.730   6.921
 4567SOL    HW120228   2.556   5.643   6.945
 4567SOL    HW220229   2.694   5.714   6.894
 4568SOL     OW20230   5.679   2.200   1.713
 4568SOL    HW120231   5.586   2.165   1.726
 4568SOL    HW220232   5.730   2.190   1.799
 4569SOL     OW20233   4.296   1.714   1.302
 4569SOL    HW120234   4.342   1.626   1.287
 4569SOL    HW220235   4.198   1.703   1.288
 4570SOL     OW20236   1.612   6.460   6.056
 4570SOL    HW120237   1.586   0.026   5.968
 4570SOL    HW220238   1.621   0.056   6.125
 4571SOL     OW20239   0.827   2.359   7.308
 4571SOL    HW120240   0.881   2.275   7.314
 4571SOL    HW220241   0.806   2.391   7.401
 4572SOL     OW20242   5.496   2.300   5.693
 4572SOL    HW120243   5.507   2.253   5.781
 4572SOL    HW220244   5.566   2.372   5.686
 4573SOL     OW20245   0.025   0.171   6.514
 4573SOL    HW120246   0.065   0.237   6.577
 4573SOL    HW220247   0.059   0.188   6.421
 4574SOL     OW20248   4.766   1.173   6.672
 4574SOL    HW120249   4.766   1.074   6.662
 4574SOL    HW220250   4.673   1.208   6.664
 4575SOL     OW20251   4.675   4.092   6.976
 4575SOL    HW120252   4.722   4.177   6.951
 4575SOL    HW220253   4.581   4.095   6.941
 4576SOL     OW20254   1.299   2.140   0.506
 4576SOL    HW120255   1.326   2.051   0.544
 4576SOL    HW220256   1.363   2.210   0.537
 4577SOL     OW20257   1.977   0.025   7.026
 4577SOL    HW120258   2.054   6.443   7.052
 4577SOL    HW220259   1.896   6.444   7.012
 4578SOL     OW20260   4.710   3.108   6.242
 4578SOL    HW120261   4.686   3.184   6.302
 4578SOL    HW220262   4.682   3.129   6.148
 4579SOL     OW20263   1.577   5.272   6.188
 4579SOL    HW120264   1.570   5.174   6.209
 4579SOL    HW220265   1.666   5.290   6.145
 4580SOL     OW20266   0.768   6.398   7.411
 4580SOL    HW120267   0.769   6.298   7.413
 4580SOL    HW220268   0.706   6.429   7.338
 4581SOL     OW20269   5.684   2.670   0.384
 4581SOL    HW120270   5.598   2.625   0.411
 4581SOL    HW220271   5.757   2.639   0.444
 4582SOL     OW20272   5.205   3.473   7.314
 4582SOL    HW120273   5.241   3.392   7.361
 4582SOL    HW220274   5.272   3.504   7.247
 4583SOL     OW20275   1.070   4.885   6.112
 4583SOL    HW120276   1.059   4.789   6.086
 4583SOL    HW220277   1.069   4.892   6.211
 4584SOL     OW20278   4.304   3.343   6.508
 4584SOL    HW120279   4.205   3.335   6.520
 4584SOL    HW220280   4.341   3.254   6.481
 4585SOL     OW20281   5.664   2.494   0.166
 4585SOL    HW120282   5.673   2.569   0.232
 4585SOL    HW220283   5.751   2.479   0.120
 4586SOL     OW20284   5.262   3.446   0.392
 4586SOL    HW120285   5.249   3.418   0.487
 4586SOL    HW220286   5.173   3.452   0.346
 4587SOL     OW20287   0.220   0.112   6.892
 4587SOL    HW120288   0.194   0.147   6.981
 4587SOL    HW220289   0.153   0.045   6.861
 4588SOL     OW20290   1.547   6.387   7.126
 4588SOL    HW120291   1.466   6.397   7.068
 4588SOL    HW220292   1.628   6.372   7.069
 4589SOL     OW20293   3.568   1.763   0.153
 4589SOL    HW120294   3.667   1.757   0.142
 4589SOL    HW220295   3.535   1.851   0.119
 4590SOL     OW20296   4.864   3.787   1.169
 4590SOL    HW120297   4.944   3.766   1.113
 4590SOL    HW220298   4.830   3.878   1.147
 4591SOL     OW20299   5.552   4.550   0.393
 4591SOL    HW120300   5.515   4.569   0.302
 4591SOL    HW220301   5.491   4.590   0.462
 4592SOL     OW20302   0.150   4.410   5.740
 4592SOL    HW120303   0.175   4.420   5.644
 4592SOL    HW220304   0.200   4.332   5.779
 4593SOL     OW20305   3.434   2.224   1.271
 4593SOL    HW120306   3.516   2.255   1.320
 4593SOL    HW220307   3.362   2.201   1.338
 4594SOL     OW20308   6.211   0.139   0.251
 4594SOL    HW120309   6.188   0.192   0.170
 4594SOL    HW220310   6.265   0.059   0.225
 4595SOL     OW20311   2.593   1.512   0.479
 4595SOL    HW120312   2.500   1.485   0.502
 4595SOL    HW220313   2.596   1.544   0.384
 4596SOL     OW20314   1.671   1.912   5.265
 4596SOL    HW120315   1.746   1.979   5.265
 4596SOL    HW220316   1.614   1.925   5.184
 4597SOL     OW20317   4.766   3.370   1.601
 4597SOL    HW120318   4.789   3.459   1.640
 4597SOL    HW220319   4.734   3.309   1.673
 4598SOL     OW20320   2.539   0.527   6.605
 4598SOL    HW120321   2.453   0.494   6.643
 4598SOL    HW220322   2.560   0.476   6.521
 4599SOL     OW20323   5.017   3.417   0.263
 4599SOL    HW120324   4.925   3.453   0.277
 4599SOL    HW220325   5.013   3.318   0.254
 4600SOL     OW20326   3.220   1.116   0.481
 4600SOL    HW120327   3.133   1.117   0.530
 4600SOL    HW220328   3.204   1.135   0.384
 4601SOL     OW20329   4.473   0.317   6.514
 4601SOL    HW120330   4.491   0.246   6.582
 4601SOL    HW220331   4.393   0.292   6.460
 4602SOL     OW20332   4.657   5.000   1.304
 4602SOL    HW120333   4.643   5.062   1.227
 4602SOL    HW220334   4.590   5.021   1.375
 4603SOL     OW20335   5.877   5.905   7.287
 4603SOL    HW120336   5.908   5.813   7.266
 4603SOL    HW220337   5.806   5.902   7.357
 4604SOL     OW20338   0.295   2.013   1.226
 4604SOL    HW120339   0.334   1.942   1.285
 4604SOL    HW220340   0.365   2.043   1.161
 4605SOL     OW20341   0.498   0.181   6.020
 4605SOL    HW120342   0.500   0.094   5.970
 4605SOL    HW220343   0.469   0.254   5.958
 4606SOL     OW20344   0.972   0.781   6.392
 4606SOL    HW120345   0.988   0.848   6.320
 4606SOL    HW220346   0.956   0.691   6.351
 4607SOL     OW20347   4.036   3.365   6.571
 4607SOL    HW120348   4.028   3.464   6.559
 4607SOL    HW220349   4.030   3.343   6.668
 4608SOL     OW20350   1.869   1.375   6.432
 4608SOL    HW120351   1.952   1.322   6.448
 4608SOL    HW220352   1.871   1.457   6.488
 4609SOL     OW20353   1.525   5.334   5.524
 4609SOL    HW120354   1.575   5.261   5.477
 4609SOL    HW220355   1.579   5.418   5.524
 4610SOL     OW20356   0.413   6.259   1.272
 4610SOL    HW120357   0.399   6.213   1.360
 4610SOL    HW220358   0.493   6.319   1.278
 4611SOL     OW20359   6.073   6.382   0.539
 4611SOL    HW120360   6.099   6.292   0.572
 4611SOL    HW220361   6.061   6.379   0.440
 4612SOL     OW20362   6.068   5.606   5.930
 4612SOL    HW120363   6.147   5.647   5.885
 4612SOL    HW220364   6.050   5.517   5.888
 4613SOL     OW20365   4.460   5.214   7.378
 4613SOL    HW120366   4.370   5.246   7.408
 4613SOL    HW220367   4.477   5.244   7.284
 4614SOL     OW20368   4.036   1.002   6.376
 4614SOL    HW120369   4.089   1.076   6.418
 4614SOL    HW220370   3.940   1.031   6.368
 4615SOL     OW20371   3.803   2.300   7.294
 4615SOL    HW120372   3.887   2.247   7.284
 4615SOL    HW220373   3.760   2.279   7.381
 4616SOL     OW20374   2.161   5.112   6.782
 4616SOL    HW120375   2.201   5.150   6.866
 4616SOL    HW220376   2.231   5.105   6.712
 4617SOL     OW20377   6.255   4.379   5.940
 4617SOL    HW120378   6.240   4.338   5.850
 4617SOL    HW220379   6.171   4.371   5.994
 4618SOL     OW20380   3.508   2.874   6.029
 4618SOL    HW120381   3.540   2.946   5.968
 4618SOL    HW220382   3.431   2.908   6.083
 4619SOL     OW20383   1.895   0.633   6.949
 4619SOL    HW120384   1.837   0.558   6.981
 4619SOL    HW220385   1.869   0.717   6.996
 4620SOL     OW20386   1.287   1.348   6.264
 4620SOL    HW120387   1.328   1.352   6.354
 4620SOL    HW220388   1.196   1.305   6.271
 4621SOL     OW20389   0.287   2.936   1.767
 4621SOL    HW120390   0.386   2.953   1.768
 4621SOL    HW220391   0.268   2.852   1.818
 4622SOL     OW20392   6.220   2.455   2.018
 4622SOL    HW120393   6.260   2.364   2.015
 4622SOL    HW220394   6.285   2.519   2.060
 4623SOL     OW20395   4.858   4.947   7.122
 4623SOL    HW120396   4.914   5.010   7.176
 4623SOL    HW220397   4.815   4.881   7.183
 4624SOL     OW20398   4.716   2.756   5.493
 4624SOL    HW120399   4.692   2.849   5.522
 4624SOL    HW220400   4.632   2.703   5.483
 4625SOL     OW20401   2.754   3.284   7.271
 4625SOL    HW120402   2.839   3.251   7.228
 4625SOL    HW220403   2.724   3.368   7.227
 4626SOL     OW20404   1.405   3.533   0.678
 4626SOL    HW120405   1.483   3.473   0.697
 4626SOL    HW220406   1.327   3.478   0.647
 4627SOL     OW20407   1.697   4.102   5.433
 4627SOL    HW120408   1.697   4.175   5.365
 4627SOL    HW220409   1.602   4.081   5.460
 4628SOL     OW20410   4.045   1.995   6.624
 4628SOL    HW120411   4.016   2.027   6.715
 4628SOL    HW220412   4.143   1.976   6.626
 4629SOL     OW20413   5.668   4.098   7.404
 4629SOL    HW120414   5.748   4.046   0.018
 4629SOL    HW220415   5.622   4.049   7.329
 4630SOL     OW20416   3.908   4.948   1.415
 4630SOL    HW120417   3.953   4.886   1.350
 4630SOL    HW220418   3.812   4.920   1.426
 4631SOL     OW20419   4.691   5.526   7.142
 4631SOL    HW120420   4.764   5.478   7.093
 4631SOL    HW220421   4.610   5.467   7.147
 4632SOL     OW20422   5.686   4.567   1.336
 4632SOL    HW120423   5.758   4.589   1.401
 4632SOL    HW220424   5.687   4.634   1.261
 4633SOL     OW20425   0.598   4.648   6.990
 4633SOL    HW120426   0.628   4.646   7.086
 4633SOL    HW220427   0.508   4.604   6.982
 4634SOL     OW20428   1.527   1.176   0.552
 4634SOL    HW120429   1.590   1.249   0.579
 4634SOL    HW220430   1.575   1.089   0.550
 4635SOL     OW20431   1.673   5.738   7.027
 4635SOL    HW120432   1.640   5.823   6.986
 4635SOL    HW220433   1.601   5.670   7.026
 4636SOL     OW20434   3.902   2.755   6.002
 4636SOL    HW120435   3.905   2.841   5.951
 4636SOL    HW220436   3.838   2.764   6.079
 4637SOL     OW20437   0.435   3.739   1.549
 4637SOL    HW120438   0.467   3.790   1.629
 4637SOL    HW220439   0.335   3.738   1.548
 4638SOL     OW20440   4.213   5.298   0.055
 4638SOL    HW120441   4.128   5.245   0.056
 4638SOL    HW220442   4.192   5.394   0.040
 4639SOL     OW20443   5.307   2.763   0.363
 4639SOL    HW120444   5.223   2.815   0.382
 4639SOL    HW220445   5.324   2.762   0.264
 4640SOL     OW20446   3.591   1.826   5.705
 4640SOL    HW120447   3.605   1.729   5.724
 4640SOL    HW220448   3.528   1.836   5.628
 4641SOL     OW20449   4.435   3.748   7.120
 4641SOL    HW120450   4.531   3.722   7.109
 4641SOL    HW220451   4.430   3.836   7.169
 4642SOL     OW20452   2.593   6.087   0.209
 4642SOL    HW120453   2.648   6.149   0.153
 4642SOL    HW220454   2.625   5.993   0.195
 4643SOL     OW20455   6.299   0.505   5.700
 4643SOL    HW120456   6.211   0.458   5.711
 4643SOL    HW220457   6.300   0.553   5.612
 4644SOL     OW20458   0.060   1.653   7.137
 4644SOL    HW120459   0.086   1.557   7.131
 4644SOL    HW220460   0.131   1.704   7.185
 4645SOL     OW20461   4.746   0.154   6.382
 4645SOL    HW120462   4.674   0.097   6.423
 4645SOL    HW220463   4.723   0.250   6.394
 4646SOL     OW20464   5.927   3.534   0.509
 4646SOL    HW120465   5.964   3.622   0.541
 4646SOL    HW220466   5.970   3.509   0.423
 4647SOL     OW20467   2.318   1.262   7.379
 4647SOL    HW120468   2.220   1.247   7.389
 4647SOL    HW220469   2.357   1.189   7.322
 4648SOL     OW20470   4.339   5.121   1.165
 4648SOL    HW120471   4.321   5.028   1.135
 4648SOL    HW220472   4.433   5.146   1.140
 4649SOL     OW20473   2.273   0.530   0.887
 4649SOL    HW120474   2.345   0.533   0.956
 4649SOL    HW220475   2.313   0.518   0.796
 4650SOL     OW20476   0.741   3.646   0.394
 4650SOL    HW120477   0.773   3.634   0.488
 4650SOL    HW220478   0.815   3.625   0.331
 4651SOL     OW20479   0.150   1.836   6.073
 4651SOL    HW120480   0.156   1.740   6.100
 4651SOL    HW220481   0.242   1.875   6.069
 4652SOL     OW20482   4.534   6.226   7.312
 4652SOL    HW120483   4.610   6.230   7.248
 4652SOL    HW220484   4.559   6.276   7.396
 4653SOL     OW20485   5.325   0.151   7.215
 4653SOL    HW120486   5.373   0.092   7.151
 4653SOL    HW220487   5.351   0.127   7.309
 4654SOL     OW20488   5.287   2.728   6.434
 4654SOL    HW120489   5.284   2.820   6.474
 4654SOL    HW220490   5.300   2.736   6.335
 4655SOL     OW20491   0.546   2.816   5.872
 4655SOL    HW120492   0.451   2.839   5.894
 4655SOL    HW220493   0.551   2.780   5.779
 4656SOL     OW20494   5.873   0.378   0.110
 4656SOL    HW120495   5.829   0.429   0.036
 4656SOL    HW220496   5.816   0.300   0.135
 4657SOL     OW20497   3.615   0.812   7.155
 4657SOL    HW120498   3.707   0.847   7.138
 4657SOL    HW220499   3.567   0.874   7.218
 4658SOL     OW20500   5.004   0.553   6.453
 4658SOL    HW120501   4.924   0.611   6.463
 4658SOL    HW220502   5.050   0.574   6.367
 4659SOL     OW20503   4.199   1.028   5.648
 4659SOL    HW120504   4.157   0.938   5.635
 4659SOL    HW220505   4.262   1.047   5.573
 4660SOL     OW20506   5.394   1.374   5.685
 4660SOL    HW120507   5.330   1.300   5.703
 4660SOL    HW220508   5.481   1.355   5.732
 4661SOL     OW20509   6.549   4.982   1.159
 4661SOL    HW120510   6.554   4.884   1.139
 4661SOL    HW220511   6.483   4.997   1.233
 4662SOL     OW20512   5.330   0.094   1.463
 4662SOL    HW120513   5.339   0.027   1.537
 4662SOL    HW220514   5.233   0.116   1.450
 4663SOL     OW20515   3.863   4.593   5.345
 4663SOL    HW120516   3.778   4.557   5.384
 4663SOL    HW220517   3.897   4.530   5.275
 4664SOL     OW20518   0.530   6.151   0.403
 4664SOL    HW120519   0.585   6.218   0.453
 4664SOL    HW220520   0.456   6.119   0.461
 4665SOL     OW20521   4.837   5.049   6.112
 4665SOL    HW120522   4.922   5.027   6.064
 4665SOL    HW220523   4.763   5.061   6.046
 4666SOL     OW20524   5.185   2.073   6.930
 4666SOL    HW120525   5.170   2.115   6.840
 4666SOL    HW220526   5.201   1.975   6.918
 4667SOL     OW20527   5.579   3.306   5.413
 4667SOL    HW120528   5.562   3.402   5.390
 4667SOL    HW220529   5.505   3.249   5.375
 4668SOL     OW20530   1.311   2.166   1.461
 4668SOL    HW120531   1.271   2.128   1.545
 4668SOL    HW220532   1.360   2.251   1.482
 4669SOL     OW20533   2.063   2.066   6.952
 4669SOL    HW120534   2.089   2.038   7.045
 4669SOL    HW220535   1.965   2.054   6.940
 4670SOL     OW20536   2.410   3.280   6.472
 4670SOL    HW120537   2.434   3.308   6.565
 4670SOL    HW220538   2.311   3.261   6.468
 4671SOL     OW20539   4.707   0.277   1.517
 4671SOL    HW120540   4.766   0.358   1.525
 4671SOL    HW220541   4.622   0.293   1.567
 4672SOL     OW20542   4.223   6.373   1.000
 4672SOL    HW120543   4.170   6.342   1.078
 4672SOL    HW220544   4.182   6.456   0.962
 4673SOL     OW20545   2.220   4.271   0.556
 4673SOL    HW120546   2.307   4.246   0.598
 4673SOL    HW220547   2.225   4.256   0.458
 4674SOL     OW20548   2.628   6.068   1.670
 4674SOL    HW120549   2.534   6.050   1.700
 4674SOL    HW220550   2.649   6.165   1.682
 4675SOL     OW20551   3.519   0.325   7.289
 4675SOL    HW120552   3.467   0.312   7.205
 4675SOL    HW220553   3.584   0.401   7.277
 4676SOL     OW20554   3.836   6.223   5.834
 4676SOL    HW120555   3.856   6.296   5.769
 4676SOL    HW220556   3.744   6.236   5.871
 4677SOL     OW20557   2.583   1.034   0.560
 4677SOL    HW120558   2.645   1.006   0.486
 4677SOL    HW220559   2.498   0.982   0.553
 4678SOL     OW20560   3.670   0.097   7.350
 4678SOL    HW120561   3.622   0.184   7.337
 4678SOL    HW220562   3.684   0.081   0.033
 4679SOL     OW20563   4.700   0.786   0.292
 4679SOL    HW120564   4.700   0.724   0.213
 4679SOL    HW220565   4.786   0.837   0.293
 4680SOL     OW20566   2.659   3.310   5.306
 4680SOL    HW120567   2.579   3.337   5.252
 4680SOL    HW220568   2.670   3.211   5.303
 4681SOL     OW20569   4.976   0.102   6.524
 4681SOL    HW120570   5.017   0.188   6.556
 4681SOL    HW220571   4.890   0.122   6.477
 4682SOL     OW20572   4.016   1.286   0.788
 4682SOL    HW120573   4.021   1.360   0.720
 4682SOL    HW220574   4.108   1.263   0.818
 4683SOL     OW20575   4.071   3.222   1.008
 4683SOL    HW120576   4.119   3.185   1.087
 4683SOL    HW220577   4.134   3.278   0.953
 4684SOL     OW20578   4.647   1.188   2.125
 4684SOL    HW120579   4.735   1.224   2.156
 4684SOL    HW220580   4.646   1.088   2.135
 4685SOL     OW20581   4.343   0.448   6.131
 4685SOL    HW120582   4.441   0.458   6.115
 4685SOL    HW220583   4.300   0.406   6.051
 4686SOL     OW20584   5.223   4.002   5.892
 4686SOL    HW120585   5.283   4.075   5.925
 4686SOL    HW220586   5.142   4.042   5.850
 4687SOL     OW20587   0.510   5.313   5.722
 4687SOL    HW120588   0.579   5.385   5.720
 4687SOL    HW220589   0.446   5.326   5.646
 4688SOL     OW20590   0.169   2.677   1.223
 4688SOL    HW120591   0.127   2.687   1.313
 4688SOL    HW220592   0.196   2.581   1.209
 4689SOL     OW20593   2.452   2.122   6.329
 4689SOL    HW120594   2.442   2.217   6.300
 4689SOL    HW220595   2.485   2.119   6.424
 4690SOL     OW20596   1.195   1.236   6.940
 4690SOL    HW120597   1.120   1.218   6.877
 4690SOL    HW220598   1.227   1.330   6.930
 4691SOL     OW20599   4.700   5.268   6.514
 4691SOL    HW120600   4.678   5.366   6.518
 4691SOL    HW220601   4.773   5.253   6.448
 4692SOL     OW20602   3.856   0.940   7.129
 4692SOL    HW120603   3.830   1.024   7.081
 4692SOL    HW220604   3.920   0.888   7.072
 4693SOL     OW20605   5.096   3.733   1.022
 4693SOL    HW120606   5.089   3.761   0.926
 4693SOL    HW220607   5.173   3.669   1.032
 4694SOL     OW20608   0.210   5.522   5.687
 4694SOL    HW120609   0.264   5.454   5.639
 4694SOL    HW220610   0.191   5.490   5.780
 4695SOL     OW20611   1.848   6.095   0.598
 4695SOL    HW120612   1.907   6.018   0.625
 4695SOL    HW220613   1.819   6.083   0.503
 4696SOL     OW20614   2.025   5.064   0.961
 4696SOL    HW120615   2.067   5.076   1.051
 4696SOL    HW220616   1.943   5.120   0.954
 4697SOL     OW20617   5.264   0.770   0.890
 4697SOL    HW120618   5.307   0.744   0.803
 4697SOL    HW220619   5.322   0.742   0.966
 4698SOL     OW20620   3.659   4.811   1.002
 4698SOL    HW120621   3.703   4.755   1.071
 4698SOL    HW220622   3.645   4.904   1.037
 4699SOL     OW20623   2.524   1.771   0.569
 4699SOL    HW120624   2.609   1.821   0.554
 4699SOL    HW220625   2.539   1.673   0.557
 4700SOL     OW20626   5.037   4.019   0.203
 4700SOL    HW120627   5.092   3.943   0.237
 4700SOL    HW220628   5.084   4.106   0.222
 4701SOL     OW20629   3.273   5.172   0.920
 4701SOL    HW120630   3.310   5.087   0.958
 4701SOL    HW220631   3.333   5.248   0.943
 4702SOL     OW20632   3.238   4.151   6.690
 4702SOL    HW120633   3.292   4.142   6.606
 4702SOL    HW220634   3.144   4.173   6.666
 4703SOL     OW20635   3.658   2.085   6.519
 4703SOL    HW120636   3.607   2.052   6.598
 4703SOL    HW220637   3.756   2.070   6.534
 4704SOL     OW20638   4.140   5.386   5.907
 4704SOL    HW120639   4.176   5.399   5.814
 4704SOL    HW220640   4.077   5.309   5.908
 4705SOL     OW20641   2.586   4.455   6.751
 4705SOL    HW120642   2.681   4.434   6.775
 4705SOL    HW220643   2.536   4.483   6.834
 4706SOL     OW20644   4.809   4.201   6.169
 4706SOL    HW120645   4.893   4.173   6.216
 4706SOL    HW220646   4.806   4.158   6.079
 4707SOL     OW20647   6.304   1.859   5.984
 4707SOL    HW120648   6.267   1.817   6.067
 4707SOL    HW220649   6.232   1.864   5.915
 4708SOL     OW20650   1.820   1.954   0.618
 4708SOL    HW120651   1.862   1.990   0.701
 4708SOL    HW220652   1.891   1.932   0.551
 4709SOL     OW20653   1.853   2.043   1.582
 4709SOL    HW120654   1.843   1.996   1.669
 4709SOL    HW220655   1.904   2.128   1.596
 4710SOL     OW20656   4.094   1.273   1.256
 4710SOL    HW120657   4.052   1.320   1.179
 4710SOL    HW220658   4.023   1.237   1.316
 4711SOL     OW20659   2.712   2.119   7.076
 4711SOL    HW120660   2.612   2.112   7.072
 4711SOL    HW220661   2.737   2.201   7.127
 4712SOL     OW20662   3.169   2.979   0.595
 4712SOL    HW120663   3.084   2.965   0.647
 4712SOL    HW220664   3.202   3.072   0.609
 4713SOL     OW20665   4.939   2.455   0.476
 4713SOL    HW120666   4.989   2.398   0.541
 4713SOL    HW220667   4.891   2.396   0.411
 4714SOL     OW20668   4.771   1.241   6.942
 4714SOL    HW120669   4.811   1.331   6.963
 4714SOL    HW220670   4.777   1.224   6.844
 4715SOL     OW20671   3.450   3.346   0.960
 4715SOL    HW120672   3.361   3.303   0.946
 4715SOL    HW220673   3.462   3.421   0.895
 4716SOL     OW20674   1.308   1.108   0.705
 4716SOL    HW120675   1.388   1.130   0.649
 4716SOL    HW220676   1.319   1.016   0.744
 4717SOL     OW20677   1.735   2.294   1.385
 4717SOL    HW120678   1.666   2.288   1.314
 4717SOL    HW220679   1.819   2.247   1.354
 4718SOL     OW20680   4.840   3.153   1.044
 4718SOL    HW120681   4.883   3.064   1.061
 4718SOL    HW220682   4.744   3.138   1.018
 4719SOL     OW20683   2.289   0.833   7.150
 4719SOL    HW120684   2.247   0.753   7.108
 4719SOL    HW220685   2.274   0.831   7.249
 4720SOL     OW20686   2.456   4.210   0.680
 4720SOL    HW120687   2.444   4.204   0.779
 4720SOL    HW220688   2.494   4.125   0.646
 4721SOL     OW20689   6.475   2.600   5.836
 4721SOL    HW120690   6.377   2.618   5.844
 4721SOL    HW220691   6.490   2.518   5.781
 4722SOL     OW20692   3.568   2.779   5.162
 4722SOL    HW120693   3.601   2.865   5.121
 4722SOL    HW220694   3.635   2.707   5.147
 4723SOL     OW20695   1.693   3.869   0.494
 4723SOL    HW120696   1.606   3.914   0.473
 4723SOL    HW220697   1.699   3.783   0.443
 4724SOL     OW20698   2.694   2.207   1.743
 4724SOL    HW120699   2.718   2.303   1.730
 4724SOL    HW220700   2.595   2.197   1.743
 4725SOL     OW20701   6.168   0.244   0.843
 4725SOL    HW120702   6.086   0.302   0.849
 4725SOL    HW220703   6.248   0.297   0.870
 4726SOL     OW20704   1.291   5.868   6.228
 4726SOL    HW120705   1.231   5.899   6.154
 4726SOL    HW220706   1.338   5.946   6.268
 4727SOL     OW20707   1.688   2.973   0.501
 4727SOL    HW120708   1.760   2.906   0.483
 4727SOL    HW220709   1.602   2.940   0.461
 4728SOL     OW20710   2.864   4.593   6.608
 4728SOL    HW120711   2.932   4.586   6.681
 4728SOL    HW220712   2.876   4.516   6.545
 4729SOL     OW20713   3.070   3.788   0.236
 4729SOL    HW120714   3.104   3.701   0.201
 4729SOL    HW220715   3.050   3.778   0.334
 4730SOL     OW20716   5.533   5.303   0.519
 4730SOL    HW120717   5.604   5.234   0.507
 4730SOL    HW220718   5.556   5.360   0.599
 4731SOL     OW20719   3.477   1.925   1.443
 4731SOL    HW120720   3.494   1.831   1.473
 4731SOL    HW220721   3.442   1.979   1.519
 4732SOL     OW20722   2.463   4.712   1.156
 4732SOL    HW120723   2.493   4.685   1.065
 4732SOL    HW220724   2.539   4.705   1.220
 4733SOL     OW20725   0.097   4.282   0.638
 4733SOL    HW120726   0.172   4.346   0.622
 4733SOL    HW220727   0.085   4.269   0.737
 4734SOL     OW20728   4.770   2.373   5.460
 4734SOL    HW120729   4.867   2.351   5.472
 4734SOL    HW220730   4.749   2.380   5.362
 4735SOL     OW20731   5.494   3.594   0.373
 4735SOL    HW120732   5.517   3.627   0.464
 4735SOL    HW220733   5.407   3.544   0.376
 4736SOL     OW20734   4.755   1.170   1.100
 4736SOL    HW120735   4.829   1.103   1.109
 4736SOL    HW220736   4.669   1.122   1.081
 4737SOL     OW20737   3.923   4.704   6.303
 4737SOL    HW120738   3.958   4.627   6.250
 4737SOL    HW220739   3.990   4.729   6.372
 4738SOL     OW20740   0.041   2.809   5.943
 4738SOL    HW120741   6.578   2.730   5.901
 4738SOL    HW220742   6.554   2.864   5.991
 4739SOL     OW20743   3.531   4.214   0.731
 4739SOL    HW120744   3.569   4.193   0.641
 4739SOL    HW220745   3.453   4.275   0.721
 4740SOL     OW20746   1.034   3.632   6.820
 4740SOL    HW120747   0.935   3.637   6.807
 4740SOL    HW220748   1.074   3.724   6.811
 4741SOL     OW20749   2.434   4.569   6.309
 4741SOL    HW120750   2.443   4.472   6.286
 4741SOL    HW220751   2.419   4.579   6.407
 4742SOL     OW20752   1.633   3.899   0.769
 4742SOL    HW120753   1.685   3.897   0.683
 4742SOL    HW220754   1.540   3.866   0.753
 4743SOL     OW20755   0.627   3.918   5.554
 4743SOL    HW120756   0.565   3.910   5.476
 4743SOL    HW220757   0.692   3.841   5.552
 4744SOL     OW20758   5.827   0.299   0.561
 4744SOL    HW120759   5.832   0.201   0.584
 4744SOL    HW220760   5.744   0.316   0.508
 4745SOL     OW20761   6.420   0.053   5.194
 4745SOL    HW120762   6.455   0.145   5.174
 4745SOL    HW220763   6.339   0.035   5.137
 4746SOL     OW20764   2.168   1.528   5.715
 4746SOL    HW120765   2.225   1.504   5.794
 4746SOL    HW220766   2.180   1.625   5.694
 4747SOL     OW20767   2.782   4.228   0.949
 4747SOL    HW120768   2.776   4.170   0.868
 4747SOL    HW220769   2.723   4.191   1.021
 4748SOL     OW20770   1.465   2.401   0.821
 4748SOL    HW120771   1.452   2.308   0.854
 4748SOL    HW220772   1.459   2.402   0.721
 4749SOL     OW20773   1.765   2.003   7.374
 4749SOL    HW120774   1.809   1.925   7.328
 4749SOL    HW220775   1.725   2.064   7.306
 4750SOL     OW20776   4.796   4.324   5.669
 4750SOL    HW120777   4.739   4.310   5.588
 4750SOL    HW220778   4.891   4.334   5.641
 4751SOL     OW20779   1.176   5.506   5.344
 4751SOL    HW120780   1.084   5.534   5.318
 4751SOL    HW220781   1.225   5.584   5.384
 4752SOL     OW20782   2.904   3.422   1.254
 4752SOL    HW120783   2.948   3.357   1.316
 4752SOL    HW220784   2.805   3.416   1.264
 4753SOL     OW20785   5.878   4.104   0.653
 4753SOL    HW120786   5.953   4.067   0.706
 4753SOL    HW220787   5.818   4.030   0.623
 4754SOL     OW20788   6.293   3.323   6.512
 4754SOL    HW120789   6.306   3.421   6.522
 4754SOL    HW220790   6.222   3.292   6.576
 4755SOL     OW20791   5.441   6.085   5.873
 4755SOL    HW120792   5.485   6.026   5.941
 4755SOL    HW220793   5.402   6.029   5.800
 4756SOL     OW20794   5.834   5.169   6.765
 4756SOL    HW120795   5.887   5.232   6.709
 4756SOL    HW220796   5.794   5.219   6.843
 4757SOL     OW20797   3.526   6.110   7.304
 4757SOL    HW120798   3.477   6.193   7.278
 4757SOL    HW220799   3.587   6.082   7.230
 4758SOL     OW20800   0.385   3.311   1.168
 4758SOL    HW120801   0.384   3.398   1.217
 4758SOL    HW220802   0.467   3.306   1.110
 4759SOL     OW20803   0.628   5.293   0.267
 4759SOL    HW120804   0.664   5.269   0.176
 4759SOL    HW220805   0.532   5.319   0.259
 4760SOL     OW20806   0.049   1.729   0.343
 4760SOL    HW120807   0.102   1.714   0.260
 4760SOL    HW220808   0.076   1.661   0.412
 4761SOL     OW20809   0.576   0.990   5.254
 4761SOL    HW120810   0.523   0.918   5.210
 4761SOL    HW220811   0.547   1.079   5.218
 4762SOL     OW20812   2.999   1.302   6.442
 4762SOL    HW120813   2.940   1.224   6.422
 4762SOL    HW220814   2.962   1.352   6.521
 4763SOL     OW20815   5.247   4.877   6.913
 4763SOL    HW120816   5.230   4.940   6.989
 4763SOL    HW220817   5.345   4.870   6.896
 4764SOL     OW20818   3.379   6.329   7.233
 4764SOL    HW120819   3.354   6.369   7.321
 4764SOL    HW220820   3.297   6.312   7.179
 4765SOL     OW20821   3.384   2.835   0.680
 4765SOL    HW120822   3.305   2.878   0.638
 4765SOL    HW220823   3.370   2.736   0.686
 4766SOL     OW20824   4.616   2.411   5.679
 4766SOL    HW120825   4.678   2.408   5.601
 4766SOL    HW220826   4.522   2.410   5.647
 4767SOL     OW20827   5.175   2.986   6.268
 4767SOL    HW120828   5.208   3.006   6.360
 4767SOL    HW220829   5.236   2.920   6.225
 4768SOL     OW20830   3.683   6.413   0.519
 4768SOL    HW120831   3.689   6.447   0.614
 4768SOL    HW220832   3.643   0.008   0.461
 4769SOL     OW20833   3.601   5.507   1.297
 4769SOL    HW120834   3.545   5.583   1.265
 4769SOL    HW220835   3.691   5.510   1.253
 4770SOL     OW20836   4.098   0.285   1.994
 4770SOL    HW120837   4.157   0.363   1.973
 4770SOL    HW220838   4.117   0.254   2.087
 4771SOL     OW20839   3.816   5.146   0.771
 4771SOL    HW120840   3.840   5.162   0.866
 4771SOL    HW220841   3.810   5.048   0.754
 4772SOL     OW20842   2.203   3.138   1.440
 4772SOL    HW120843   2.207   3.237   1.450
 4772SOL    HW220844   2.157   3.099   1.520
 4773SOL     OW20845   3.897   2.905   1.300
 4773SOL    HW120846   3.970   2.848   1.339
 4773SOL    HW220847   3.810   2.882   1.343
 4774SOL     OW20848   5.819   0.119   6.015
 4774SOL    HW120849   5.815   0.034   6.068
 4774SOL    HW220850   5.912   0.155   6.018
 4775SOL     OW20851   0.745   1.290   5.232
 4775SOL    HW120852   0.811   1.216   5.219
 4775SOL    HW220853   0.656   1.261   5.198
 4776SOL     OW20854   0.527   2.064   1.087
 4776SOL    HW120855   0.559   1.970   1.099
 4776SOL    HW220856   0.599   2.119   1.045
 4777SOL     OW20857   4.933   5.408   0.956
 4777SOL    HW120858   4.914   5.406   0.858
 4777SOL    HW220859   4.992   5.486   0.977
 4778SOL     OW20860   2.902   3.692   5.827
 4778SOL    HW120861   2.925   3.660   5.735
 4778SOL    HW220862   2.970   3.658   5.892
 4779SOL     OW20863   5.775   5.902   6.085
 4779SOL    HW120864   5.824   5.872   6.003
 4779SOL    HW220865   5.773   5.828   6.152
 4780SOL     OW20866   2.199   5.470   0.967
 4780SOL    HW120867   2.279   5.411   0.960
 4780SOL    HW220868   2.142   5.440   1.043
 4781SOL     OW20869   4.610   1.889   1.383
 4781SOL    HW120870   4.566   1.978   1.389
 4781SOL    HW220871   4.573   1.838   1.305
 4782SOL     OW20872   5.721   6.126   0.458
 4782SOL    HW120873   5.654   6.154   0.527
 4782SOL    HW220874   5.742   6.204   0.399
 4783SOL     OW20875   1.610   0.923   0.300
 4783SOL    HW120876   1.700   0.942   0.260
 4783SOL    HW220877   1.618   0.919   0.399
 4784SOL     OW20878   4.600   4.538   2.012
 4784SOL    HW120879   4.554   4.458   1.975
 4784SOL    HW220880   4.647   4.513   2.097
 4785SOL     OW20881   3.915   3.348   6.325
 4785SOL    HW120882   3.850   3.273   6.311
 4785SOL    HW220883   3.957   3.338   6.415
 4786SOL     OW20884   4.597   0.478   6.014
 4786SOL    HW120885   4.680   0.473   6.069
 4786SOL    HW220886   4.609   0.428   5.929
 4787SOL     OW20887   1.403   3.516   0.970
 4787SOL    HW120888   1.436   3.555   0.884
 4787SOL    HW220889   1.333   3.447   0.951
 4788SOL     OW20890   6.180   4.008   1.192
 4788SOL    HW120891   6.131   3.945   1.131
 4788SOL    HW220892   6.137   4.098   1.190
 4789SOL     OW20893   1.214   1.863   7.254
 4789SOL    HW120894   1.213   1.954   7.213
 4789SOL    HW220895   1.308   1.840   7.281
 4790SOL     OW20896   4.407   1.473   0.976
 4790SOL    HW120897   4.399   1.563   0.933
 4790SOL    HW220898   4.503   1.455   0.997
 4791SOL     OW20899   6.534   1.549   0.009
 4791SOL    HW120900   6.538   1.545   7.323
 4791SOL    HW220901   6.466   1.615   0.038
 4792SOL     OW20902   6.237   1.484   7.380
 4792SOL    HW120903   6.140   1.499   7.365
 4792SOL    HW220904   6.276   1.564   0.012
 4793SOL     OW20905   2.049   0.935   6.390
 4793SOL    HW120906   2.074   0.903   6.481
 4793SOL    HW220907   2.013   0.859   6.337
 4794SOL     OW20908   1.796   1.544   7.332
 4794SOL    HW120909   1.721   1.550   7.398
 4794SOL    HW220910   1.822   1.636   7.304
 4795SOL     OW20911   5.199   5.185   6.035
 4795SOL    HW120912   5.128   5.118   6.013
 4795SOL    HW220913   5.185   5.220   6.127
 4796SOL     OW20914   5.735   3.608   5.508
 4796SOL    HW120915   5.792   3.680   5.468
 4796SOL    HW220916   5.653   3.595   5.453
 4797SOL     OW20917   0.633   5.891   6.575
 4797SOL    HW120918   0.538   5.869   6.551
 4797SOL    HW220919   0.634   5.947   6.658
 4798SOL     OW20920   5.488   6.225   1.060
 4798SOL    HW120921   5.543   6.296   1.016
 4798SOL    HW220922   5.429   6.268   1.129
 4799SOL     OW20923   5.876   1.743   6.592
 4799SOL    HW120924   5.790   1.793   6.582
 4799SOL    HW220925   5.906   1.747   6.687
 4800SOL     OW20926   3.357   2.563   0.707
 4800SOL    HW120927   3.280   2.546   0.769
 4800SOL    HW220928   3.408   2.478   0.694
 4801SOL     OW20929   0.895   2.575   5.948
 4801SOL    HW120930   0.900   2.481   5.983
 4801SOL    HW220931   0.825   2.625   5.998
 4802SOL     OW20932   6.333   6.327   6.349
 4802SOL    HW120933   6.323   6.407   6.409
 4802SOL    HW220934   6.428   6.320   6.318
 4803SOL     OW20935   3.033   6.276   0.017
 4803SOL    HW120936   3.048   6.191   7.380
 4803SOL    HW220937   3.121   6.310   0.051
 4804SOL     OW20938   5.098   4.713   0.101
 4804SOL    HW120939   5.100   4.686   0.004
 4804SOL    HW220940   5.004   4.702   0.135
 4805SOL     OW20941   4.384   3.867   0.973
 4805SOL    HW120942   4.320   3.804   1.017
 4805SOL    HW220943   4.335   3.923   0.906
 4806SOL     OW20944   4.375   5.753   5.959
 4806SOL    HW120945   4.461   5.763   6.009
 4806SOL    HW220946   4.394   5.752   5.861
 4807SOL     OW20947   5.243   4.359   0.656
 4807SOL    HW120948   5.226   4.442   0.602
 4807SOL    HW220949   5.272   4.285   0.595
 4808SOL     OW20950   3.636   5.772   0.388
 4808SOL    HW120951   3.631   5.719   0.304
 4808SOL    HW220952   3.543   5.795   0.418
 4809SOL     OW20953   4.706   4.781   6.532
 4809SOL    HW120954   4.783   4.822   6.582
 4809SOL    HW220955   4.717   4.798   6.434
 4810SOL     OW20956   1.997   2.249   1.711
 4810SOL    HW120957   1.996   2.281   1.806
 4810SOL    HW220958   2.079   2.195   1.695
 4811SOL     OW20959   4.637   2.196   5.839
 4811SOL    HW120960   4.627   2.276   5.780
 4811SOL    HW220961   4.722   2.203   5.891
 4812SOL     OW20962   2.041   4.145   0.718
 4812SOL    HW120963   2.101   4.202   0.662
 4812SOL    HW220964   1.991   4.082   0.658
 4813SOL     OW20965   2.723   3.382   1.571
 4813SOL    HW120966   2.762   3.361   1.661
 4813SOL    HW220967   2.723   3.481   1.557
 4814SOL     OW20968   6.430   2.617   1.176
 4814SOL    HW120969   6.461   2.543   1.116
 4814SOL    HW220970   6.440   2.588   1.271
 4815SOL     OW20971   4.483   2.390   7.121
 4815SOL    HW120972   4.480   2.490   7.121
 4815SOL    HW220973   4.557   2.359   7.181
 4816SOL     OW20974   2.104   1.974   5.787
 4816SOL    HW120975   2.137   1.881   5.772
 4816SOL    HW220976   2.165   2.039   5.740
 4817SOL     OW20977   3.783   1.156   6.391
 4817SOL    HW120978   3.839   1.204   6.459
 4817SOL    HW220979   3.768   1.215   6.312
 4818SOL     OW20980   3.978   5.150   0.071
 4818SOL    HW120981   3.888   5.183   0.042
 4818SOL    HW220982   3.979   5.140   0.171
 4819SOL     OW20983   1.855   4.411   0.508
 4819SOL    HW120984   1.773   4.371   0.548
 4819SOL    HW220985   1.829   4.462   0.425
 4820SOL     OW20986   1.337   5.213   5.932
 4820SOL    HW120987   1.276   5.263   5.870
 4820SOL    HW220988   1.315   5.237   6.027
 4821SOL     OW20989   5.615   0.361   6.962
 4821SOL    HW120990   5.574   0.443   6.923
 4821SOL    HW220991   5.581   0.348   7.055
 4822SOL     OW20992   5.872   4.743   6.184
 4822SOL    HW120993   5.969   4.725   6.164
 4822SOL    HW220994   5.840   4.820   6.128
 4823SOL     OW20995   0.235   6.268   6.989
 4823SOL    HW120996   0.302   6.271   6.915
 4823SOL    HW220997   0.244   6.182   7.039
 4824SOL     OW20998   4.161   4.942   0.041
 4824SOL    HW120999   4.093   5.016   0.044
 4824SOL    HW221000   4.237   4.965   0.102
 4825SOL     OW21001   1.616   2.764   5.888
 4825SOL    HW121002   1.557   2.749   5.808
 4825SOL    HW221003   1.565   2.813   5.958
 4826SOL     OW21004   1.535   5.314   1.942
 4826SOL    HW121005   1.630   5.338   1.921
 4826SOL    HW221006   1.534   5.245   2.015
 4827SOL     OW21007   1.773   5.524   6.209
 4827SOL    HW121008   1.821   5.597   6.161
 4827SOL    HW221009   1.778   5.440   6.156
 4828SOL     OW21010   4.578   2.545   5.911
 4828SOL    HW121011   4.516   2.620   5.888
 4828SOL    HW221012   4.595   2.489   5.830
 4829SOL     OW21013   5.237   3.317   5.914
 4829SOL    HW121014   5.140   3.317   5.939
 4829SOL    HW221015   5.246   3.308   5.815
 4830SOL     OW21016   2.506   2.163   1.301
 4830SOL    HW121017   2.461   2.077   1.328
 4830SOL    HW221018   2.436   2.229   1.274
 4831SOL     OW21019   1.138   4.097   0.062
 4831SOL    HW121020   1.190   4.177   0.090
 4831SOL    HW221021   1.093   4.056   0.141
 4832SOL     OW21022   4.767   1.124   5.324
 4832SOL    HW121023   4.678   1.096   5.288
 4832SOL    HW221024   4.836   1.059   5.293
 4833SOL     OW21025   0.407   2.947   6.186
 4833SOL    HW121026   0.365   2.935   6.096
 4833SOL    HW221027   0.431   3.044   6.199
 4834SOL     OW21028   6.250   3.206   5.366
 4834SOL    HW121029   6.301   3.291   5.377
 4834SOL    HW221030   6.313   3.133   5.338
 4835SOL     OW21031   2.572   1.590   0.210
 4835SOL    HW121032   2.511   1.511   0.211
 4835SOL    HW221033   2.582   1.623   0.115
 4836SOL     OW21034   0.435   5.309   6.371
 4836SOL    HW121035   0.352   5.362   6.384
 4836SOL    HW221036   0.489   5.349   6.297
 4837SOL     OW21037   4.760   1.173   0.598
 4837SOL    HW121038   4.702   1.122   0.662
 4837SOL    HW221039   4.856   1.147   0.611
 4838SOL     OW21040   6.217   2.318   7.387
 4838SOL    HW121041   6.313   2.299   7.404
 4838SOL    HW221042   6.163   2.236   7.403
 4839SOL     OW21043   5.057   0.949   6.211
 4839SOL    HW121044   4.994   1.023   6.235
 4839SOL    HW221045   5.005   0.866   6.191
 4840SOL     OW21046   4.879   0.051   0.684
 4840SOL    HW121047   4.927   0.025   0.768
 4840SOL    HW221048   4.794   0.098   0.707
 4841SOL     OW21049   4.919   5.940   0.291
 4841SOL    HW121050   4.937   5.868   0.223
 4841SOL    HW221051   4.942   6.029   0.252
 4842SOL     OW21052   3.917   1.080   5.885
 4842SOL    HW121053   3.922   1.116   5.792
 4842SOL    HW221054   3.998   1.110   5.936
 4843SOL     OW21055   6.537   1.947   1.412
 4843SOL    HW121056   6.571   2.020   1.471
 4843SOL    HW221057   6.491   1.986   1.332
 4844SOL     OW21058   6.574   2.096   0.964
 4844SOL    HW121059   0.036   2.014   0.926
 4844SOL    HW221060   0.056   2.173   0.959
 4845SOL     OW21061   1.429   6.075   6.354
 4845SOL    HW121062   1.404   6.115   6.442
 4845SOL    HW221063   1.441   6.147   6.287
 4846SOL     OW21064   5.741   2.980   2.176
 4846SOL    HW121065   5.732   2.888   2.214
 4846SOL    HW221066   5.657   3.005   2.128
 4847SOL     OW21067   5.419   5.731   1.658
 4847SOL    HW121068   5.500   5.788   1.661
 4847SOL    HW221069   5.375   5.730   1.748
 4848SOL     OW21070   5.339   2.380   6.209
 4848SOL    HW121071   5.254   2.422   6.243
 4848SOL    HW221072   5.317   2.308   6.143
 4849SOL     OW21073   0.544   4.673   0.069
 4849SOL    HW121074   0.582   4.608   0.136
 4849SOL    HW221075   0.608   4.684   7.408
 4850SOL     OW21076   6.090   5.866   0.651
 4850SOL    HW121077   6.171   5.867   0.709
 4850SOL    HW221078   6.018   5.811   0.695
 4851SOL     OW21079   0.313   0.261   0.316
 4851SOL    HW121080   0.215   0.269   0.335
 4851SOL    HW221081   0.365   0.310   0.385
 4852SOL     OW21082   0.714   4.130   0.782
 4852SOL    HW121083   0.782   4.184   0.832
 4852SOL    HW221084   0.735   4.032   0.792
 4853SOL     OW21085   5.023   1.818   6.708
 4853SOL    HW121086   5.067   1.788   6.623
 4853SOL    HW221087   5.085   1.802   6.785
 4854SOL     OW21088   1.505   2.837   0.107
 4854SOL    HW121089   1.435   2.863   0.041
 4854SOL    HW221090   1.556   2.758   0.072
 4855SOL     OW21091   2.515   6.059   0.778
 4855SOL    HW121092   2.585   6.092   0.841
 4855SOL    HW221093   2.445   6.130   0.765
 4856SOL     OW21094   1.370   6.174   6.606
 4856SOL    HW121095   1.311   6.129   6.673
 4856SOL    HW221096   1.405   6.259   6.645
 4857SOL     OW21097   6.236   5.011   0.194
 4857SOL    HW121098   6.265   5.102   0.223
 4857SOL    HW221099   6.201   4.960   0.273
 4858SOL     OW21100   4.411   3.212   0.498
 4858SOL    HW121101   4.403   3.303   0.458
 4858SOL    HW221102   4.470   3.155   0.442
 4859SOL     OW21103   4.878   5.731   5.948
 4859SOL    HW121104   4.896   5.804   5.881
 4859SOL    HW221105   4.901   5.642   5.907
 4860SOL     OW21106   6.400   6.219   6.822
 4860SOL    HW121107   6.358   6.187   6.907
 4860SOL    HW221108   6.330   6.253   6.760
 4861SOL     OW21109   4.929   2.807   6.693
 4861SOL    HW121110   4.971   2.731   6.645
 4861SOL    HW221111   4.855   2.845   6.638
 4862SOL     OW21112   2.014   6.021   7.303
 4862SOL    HW121113   1.919   6.003   7.326
 4862SOL    HW221114   2.054   5.940   7.259
 4863SOL     OW21115   0.631   3.906   7.236
 4863SOL    HW121116   0.714   3.912   7.181
 4863SOL    HW221117   0.612   3.810   7.257
 4864SOL     OW21118   4.249   5.185   1.418
 4864SOL    HW121119   4.280   5.169   1.324
 4864SOL    HW221120   4.198   5.271   1.421
 4865SOL     OW21121   1.924   1.138   1.488
 4865SOL    HW121122   1.909   1.045   1.455
 4865SOL    HW221123   1.897   1.143   1.584
 4866SOL     OW21124   3.535   2.511   6.020
 4866SOL    HW121125   3.587   2.474   6.097
 4866SOL    HW221126   3.472   2.442   5.985
 4867SOL     OW21127   0.211   2.584   7.206
 4867SOL    HW121128   0.154   2.543   7.278
 4867SOL    HW221129   0.165   2.666   7.171
 4868SOL     OW21130   3.112   4.270   1.210
 4868SOL    HW121131   3.102   4.225   1.121
 4868SOL    HW221132   3.046   4.232   1.275
 4869SOL     OW21133   0.012   4.953   0.575
 4869SOL    HW121134   6.577   4.855   0.564
 4869SOL    HW221135   0.103   4.967   0.615
 4870SOL     OW21136   0.068   6.444   5.953
 4870SOL    HW121137   0.141   6.404   6.008
 4870SOL    HW221138   0.054   0.064   5.979
 4871SOL     OW21139   3.752   3.044   0.794
 4871SOL    HW121140   3.708   2.994   0.719
 4871SOL    HW221141   3.688   3.052   0.870
 4872SOL     OW21142   5.823   3.951   6.305
 4872SOL    HW121143   5.822   3.856   6.274
 4872SOL    HW221144   5.792   3.954   6.400
 4873SOL     OW21145   5.360   4.488   7.323
 4873SOL    HW121146   5.412   4.533   7.397
 4873SOL    HW221147   5.280   4.545   7.300
 4874SOL     OW21148   2.778   0.668   1.373
 4874SOL    HW121149   2.758   0.649   1.469
 4874SOL    HW221150   2.876   0.686   1.362
 4875SOL     OW21151   0.824   3.408   0.117
 4875SOL    HW121152   0.862   3.317   0.099
 4875SOL    HW221153   0.877   3.453   0.189
 4876SOL     OW21154   3.293   5.092   0.107
 4876SOL    HW121155   3.256   5.124   0.194
 4876SOL    HW221156   3.234   5.020   0.071
 4877SOL     OW21157   4.680   3.005   5.590
 4877SOL    HW121158   4.584   3.031   5.598
 4877SOL    HW221159   4.726   3.069   5.528
 4878SOL     OW21160   5.942   5.891   1.361
 4878SOL    HW121161   6.031   5.871   1.403
 4878SOL    HW221162   5.952   5.966   1.296
 4879SOL     OW21163   0.644   5.105   6.074
 4879SOL    HW121164   0.665   5.183   6.016
 4879SOL    HW221165   0.717   5.093   6.141
 4880SOL     OW21166   6.137   6.370   6.157
 4880SOL    HW121167   6.154   6.316   6.075
 4880SOL    HW221168   6.206   6.349   6.226
 4881SOL     OW21169   0.577   3.646   7.320
 4881SOL    HW121170   0.527   3.559   7.322
 4881SOL    HW221171   0.675   3.628   7.319
 4882SOL     OW21172   2.249   0.155   0.384
 4882SOL    HW121173   2.259   0.070   0.333
 4882SOL    HW221174   2.259   0.233   0.322
 4883SOL     OW21175   1.381   0.813   0.173
 4883SOL    HW121176   1.461   0.840   0.226
 4883SOL    HW221177   1.410   0.777   0.085
 4884SOL     OW21178   5.147   3.791   7.241
 4884SOL    HW121179   5.232   3.775   7.292
 4884SOL    HW221180   5.159   3.765   7.146
 4885SOL     OW21181   0.198   5.804   1.225
 4885SOL    HW121182   0.126   5.828   1.160
 4885SOL    HW221183   0.156   5.769   1.309
 4886SOL     OW21184   4.585   1.060   7.030
 4886SOL    HW121185   4.564   1.068   7.127
 4886SOL    HW221186   4.649   1.133   7.004
 4887SOL     OW21187   0.299   2.910   1.166
 4887SOL    HW121188   0.259   2.823   1.192
 4887SOL    HW221189   0.306   2.969   1.247
 4888SOL     OW21190   1.578   6.321   5.475
 4888SOL    HW121191   1.662   6.359   5.436
 4888SOL    HW221192   1.500   6.376   5.446
 4889SOL     OW21193   4.267   2.503   0.948
 4889SOL    HW121194   4.189   2.566   0.948
 4889SOL    HW221195   4.244   2.422   1.002
 4890SOL     OW21196   3.764   1.100   0.381
 4890SOL    HW121197   3.672   1.138   0.395
 4890SOL    HW221198   3.795   1.058   0.466
 4891SOL     OW21199   5.755   5.693   6.271
 4891SOL    HW121200   5.847   5.721   6.301
 4891SOL    HW221201   5.690   5.711   6.345
 4892SOL     OW21202   4.505   5.258   0.682
 4892SOL    HW121203   4.410   5.237   0.657
 4892SOL    HW221204   4.554   5.292   0.602
 4893SOL     OW21205   6.141   1.951   6.877
 4893SOL    HW121206   6.113   2.043   6.904
 4893SOL    HW221207   6.175   1.952   6.783
 4894SOL     OW21208   5.696   1.969   0.041
 4894SOL    HW121209   5.665   1.927   0.126
 4894SOL    HW221210   5.646   1.929   7.379
 4895SOL     OW21211   4.652   1.864   5.975
 4895SOL    HW121212   4.587   1.792   5.953
 4895SOL    HW221213   4.625   1.909   6.060
 4896SOL     OW21214   5.067   4.422   1.234
 4896SOL    HW121215   5.154   4.382   1.261
 4896SOL    HW221216   5.063   4.517   1.266
 4897SOL     OW21217   5.114   6.303   1.140
 4897SOL    HW121218   5.198   6.320   1.192
 4897SOL    HW221219   5.044   6.266   1.202
 4898SOL     OW21220   0.070   3.091   1.873
 4898SOL    HW121221   0.139   3.038   1.823
 4898SOL    HW221222   0.011   3.137   1.808
 4899SOL     OW21223   4.397   5.673   0.630
 4899SOL    HW121224   4.301   5.661   0.657
 4899SOL    HW221225   4.402   5.721   0.543
 4900SOL     OW21226   4.220   3.675   1.089
 4900SOL    HW121227   4.187   3.652   0.998
 4900SOL    HW221228   4.290   3.609   1.118
 4901SOL     OW21229   0.797   5.717   0.239
 4901SOL    HW121230   0.814   5.619   0.248
 4901SOL    HW221231   0.846   5.752   0.159
 4902SOL     OW21232   3.078   3.581   0.811
 4902SOL    HW121233   3.011   3.506   0.813
 4902SOL    HW221234   3.140   3.569   0.734
 4903SOL     OW21235   4.648   2.665   0.386
 4903SOL    HW121236   4.598   2.581   0.368
 4903SOL    HW221237   4.589   2.730   0.433
 4904SOL     OW21238   3.313   6.160   6.246
 4904SOL    HW121239   3.298   6.093   6.320
 4904SOL    HW221240   3.401   6.143   6.203
 4905SOL     OW21241   4.310   1.608   0.098
 4905SOL    HW121242   4.274   1.603   0.191
 4905SOL    HW221243   4.238   1.583   0.033
 4906SOL     OW21244   5.482   0.589   6.877
 4906SOL    HW121245   5.439   0.661   6.930
 4906SOL    HW221246   5.538   0.629   6.804
 4907SOL     OW21247   5.432   2.309   6.663
 4907SOL    HW121248   5.427   2.401   6.624
 4907SOL    HW221249   5.491   2.310   6.744
 4908SOL     OW21250   6.548   4.602   0.817
 4908SOL    HW121251   0.054   4.568   0.853
 4908SOL    HW221252   6.559   4.628   0.721
 4909SOL     OW21253   3.713   0.796   6.217
 4909SOL    HW121254   3.752   0.725   6.158
 4909SOL    HW221255   3.723   0.885   6.174
 4910SOL     OW21256   2.896   2.916   0.343
 4910SOL    HW121257   2.930   3.001   0.382
 4910SOL    HW221258   2.923   2.910   0.247
 4911SOL     OW21259   0.665   2.294   5.900
 4911SOL    HW121260   0.762   2.299   5.924
 4911SOL    HW221261   0.641   2.372   5.842
 4912SOL     OW21262   2.043   2.916   5.843
 4912SOL    HW121263   2.090   2.989   5.795
 4912SOL    HW221264   1.997   2.856   5.777
 4913SOL     OW21265   5.031   1.395   5.971
 4913SOL    HW121266   4.939   1.360   5.986
 4913SOL    HW221267   5.037   1.437   5.880
 4914SOL     OW21268   5.187   6.152   5.407
 4914SOL    HW121269   5.165   6.197   5.321
 4914SOL    HW221270   5.284   6.164   5.427
 4915SOL     OW21271   0.462   6.174   1.759
 4915SOL    HW121272   0.433   6.263   1.794
 4915SOL    HW221273   0.460   6.107   1.833
 4916SOL     OW21274   5.768   4.061   1.283
 4916SOL    HW121275   5.788   4.125   1.209
 4916SOL    HW221276   5.832   4.075   1.358
 4917SOL     OW21277   4.015   3.629   7.234
 4917SOL    HW121278   3.968   3.623   7.322
 4917SOL    HW221279   4.111   3.604   7.245
   6.58170   6.47570   7.41430
