;----------------------------TITLE -----------------------------------------------------------------------------------------
;   Toluene
[ moleculetype ]
; Name   nrexcl
HO7A     3
[ atoms ]
;  nr  type  resnr  resid  atom  cgnr  charge    mass
    1  HCH3    1    HO7A     H8    1    0.147   1.0080
    2  C_H3    1    HO7A     C7    2   -0.525  12.0110
    3  HCH3    1    HO7A     H6    3    0.147   1.0080
    4  HCH3    1    HO7A     H7    4    0.147   1.0080
    5  CAro    1    HO7A     C4    5    0.324  12.0110
    6  CAro    1    HO7A     C3    6   -0.293  12.0110
    7  HCAr    1    HO7A     H3    7    0.162   1.0080
    8  CAro    1    HO7A     C2    8   -0.103  12.0110
    9  HCAr    1    HO7A     H2    9    0.140   1.0080
   10  CAro    1    HO7A     C1   10   -0.202  12.0110
   11  HCAr    1    HO7A     H1   11    0.150   1.0080
   12  CAro    1    HO7A     C6   12   -0.103  12.0110
   13  HCAr    1    HO7A     H5   13    0.140   1.0080
   14  CAro    1    HO7A     C5   14   -0.293  12.0110
   15  HCAr    1    HO7A     H4   15    0.162   1.0080
; total charge of the molecule:   0.000
[ bonds ]
;  ai   aj  funct   c0         c1
    1    2    2   0.1090   1.2300e+07
    2    3    2   0.1090   1.2300e+07
    2    4    2   0.1090   1.2300e+07
    2    5    2   0.1500   8.3700e+06
    5    6    2   0.1390   8.6600e+06
    5   14    2   0.1390   8.6600e+06
    6    7    2   0.1090   1.2300e+07
    6    8    2   0.1390   8.6600e+06
    8    9    2   0.1090   1.2300e+07
    8   10    2   0.1390   8.6600e+06
   10   11    2   0.1090   1.2300e+07
   10   12    2   0.1390   8.6600e+06
   12   13    2   0.1090   1.2300e+07
   12   14    2   0.1390   8.6600e+06
   14   15    2   0.1090   1.2300e+07
[ pairs ]
;  ai   aj  funct  ;  all 1-4 pairs but the ones excluded in GROMOS itp
    1    6    1
    1   14    1
    2    7    1
    2    8    1
    2   12    1
    2   15    1
    3    6    1
    3   14    1
    4    6    1
    4   14    1
    5    9    1
    5   13    1
    6   11    1
    6   15    1
    7   10    1
    7   14    1
    8   13    1
    9   12    1
   10   15    1
   11   14    1
[ angles ]
;  ai   aj   ak  funct   angle     fc
    1    2    3    2    108.00   465.00
    1    2    4    2    108.00   465.00
    1    2    5    2    111.30   632.00
    3    2    4    2    108.00   465.00
    3    2    5    2    111.30   632.00
    4    2    5    2    111.30   632.00
    2    5    6    2    120.00   560.00
    2    5   14    2    120.00   560.00
    6    5   14    2    120.00   560.00
    5    6    7    2    120.00   505.00
    5    6    8    2    120.00   560.00
    7    6    8    2    120.00   505.00
    6    8    9    2    120.00   505.00
    6    8   10    2    120.00   560.00
    9    8   10    2    120.00   505.00
    8   10   11    2    120.00   505.00
    8   10   12    2    120.00   560.00
   11   10   12    2    120.00   505.00
   10   12   13    2    120.00   505.00
   10   12   14    2    120.00   560.00
   13   12   14    2    120.00   505.00
    5   14   12    2    120.00   560.00
    5   14   15    2    120.00   505.00
   12   14   15    2    120.00   505.00
[ dihedrals ]
; GROMOS improper dihedrals
;  ai   aj   ak   al  funct   angle     fc
   10    8   11   12    2      0.00   167.36
    8    6    9   10    2      0.00   167.36
    6    5    7    8    2      0.00   167.36
    5    2    6   14    2      0.00   167.36
   14    5   12   15    2      0.00   167.36
   12   10   13   14    2      0.00   167.36
[ dihedrals ]
;  ai   aj   ak   al  funct    ph0      cp     mult
    5    6    8   10    1    180.00    50.00    1
    5   14   12   10    1    180.00    50.00    1
    6    8   10   12    1    180.00    50.00    1
    8   10   12   14    1    180.00    50.00    1
    4    2    5    6    1      0.00     5.44    3
   14    5    6    8    1    180.00    50.00    1
    6    5   14   12    1    180.00    50.00    1
[ exclusions ]
;  ai   aj  funct  ;  GROMOS 1-4 exclusions
    5   10
    6   12
    7    9
    8   14
    9   11
   11   13
   13   15
