[ moleculetype ]
; Name            nrexcl
  RO1                3

[ atoms ]

 1     FR1      6       RO1     FR1        1	0        39.9
 2      C1      6       RO1      C1        2	0         14
 3      C1      6       RO1      C1        3	0         14
 4      C1      6       RO1      C1        4	0         14
 5      C1      6       RO1      C1        5	0         14
 6      C1      6       RO1      C1        6	0         14
 7      C1      6       RO1      C1        7	0         14
 8      C1      6       RO1      C1        8	0         14
 9      C1      6       RO1      C1        9	0         14
10      C1      6       RO1      C1       10	0         14
11      C1      6       RO1      C1       11	0         14
12      C1      6       RO1      C1       12	0         14
13      C1      6       RO1      C1       13	0         14
14      C1      6       RO1      C1       14	0         14
15      C1      6       RO1      C1       15	0         14
16      C1      6       RO1      C1       16	0         14
17      C1      6       RO1      C1       17	0         14
18      C1      6       RO1      C1       18	0         14
19      C1      6       RO1      C1       19	0         14
20      C1      6       RO1      C1       20	0         14
21      C1      6       RO1      C1       21	0         14
22      C1      6       RO1      C1       22	0         14
23      C1      6       RO1      C1       23	0         14
24      C1      6       RO1      C1       24	0         14
25      C1      6       RO1      C1       25	0         14
26      C1      6       RO1      C1       26	0         14
27      C1      6       RO1      C1       27	0         14
28      C1      6       RO1      C1       28	0         14
29      C1      6       RO1      C1       29	0         14
30      C1      6       RO1      C1       30	0         14
31      C1      6       RO1      C1       31	0         14
32      C1      6       RO1      C1       32	0         14
33      C1      6       RO1      C1       33	0         14
34      C1      6       RO1      C1       34	0         14
35      C1      6       RO1      C1       35	0         14
36      C1      6       RO1      C1       36	0         14
37      C1      6       RO1      C1       37	0         14
38      C1      6       RO1      C1       38	0         14
39      C1      6       RO1      C1       39	0         14
40      C1      6       RO1      C1       40	0         14
41      C1      6       RO1      C1       41	0         14
42      C1      6       RO1      C1       42	0         14
43      C1      6       RO1      C1       43	0         14

[ moleculetype ]
; Name            nrexcl
  RO2                3

[ atoms ]

 1     FR2      7       RO2     FR2        1	0        39.9
 2      C2      7       RO2      C2        2	0         14
 3      C2      7       RO2      C2        3	0         14
 4      C2      7       RO2      C2        4	0         14
 5      C2      7       RO2      C2        5	0         14
 6      C2      7       RO2      C2        6	0         14
 7      C2      7       RO2      C2        7	0         14
 8      C2      7       RO2      C2        8	0         14
 9      C2      7       RO2      C2        9	0         14
10      C2      7       RO2      C2       10	0         14
11      C2      7       RO2      C2       11	0         14
12      C2      7       RO2      C2       12	0         14
13      C2      7       RO2      C2       13	0         14
14      C2      7       RO2      C2       14	0         14
15      C2      7       RO2      C2       15	0         14
16      C2      7       RO2      C2       16	0         14
17      C2      7       RO2      C2       17	0         14
18      C2      7       RO2      C2       18	0         14
19      C2      7       RO2      C2       19	0         14
20      C2      7       RO2      C2       20	0         14
21      C2      7       RO2      C2       21	0         14
22      C2      7       RO2      C2       22	0         14
23      C2      7       RO2      C2       23	0         14
24      C2      7       RO2      C2       24	0         14
25      C2      7       RO2      C2       25	0         14
26      C2      7       RO2      C2       26	0         14
27      C2      7       RO2      C2       27	0         14
28      C2      7       RO2      C2       28	0         14
29      C2      7       RO2      C2       29	0         14
30      C2      7       RO2      C2       30	0         14
31      C2      7       RO2      C2       31	0         14
32      C2      7       RO2      C2       32	0         14
33      C2      7       RO2      C2       33	0         14
34      C2      7       RO2      C2       34	0         14
35      C2      7       RO2      C2       35	0         14
36      C2      7       RO2      C2       36	0         14
37      C2      7       RO2      C2       37	0         14
38      C2      7       RO2      C2       38	0         14
39      C2      7       RO2      C2       39	0         14
40      C2      7       RO2      C2       40	0         14
41      C2      7       RO2      C2       41	0         14
42      C2      7       RO2      C2       42	0         14
43      C2      7       RO2      C2       43	0         14

[ moleculetype ]
; Name            nrexcl
  RO3                3

[ atoms ]

 1     FR3      8       RO3     FR3        1	0        39.9
 2     CC3      8       RO3     CC3        2	0         14
 3     CC3      8       RO3     CC3        3	0         14
 4     CC3      8       RO3     CC3        4	0         14
 5     CC3      8       RO3     CC3        5	0         14
 6     CC3      8       RO3     CC3        6	0         14
 7     CC3      8       RO3     CC3        7	0         14
 8     CC3      8       RO3     CC3        8	0         14
 9     CC3      8       RO3     CC3        9	0         14
10     CC3      8       RO3     CC3       10	0         14
11     CC3      8       RO3     CC3       11	0         14
12     CC3      8       RO3     CC3       12	0         14
13     CC3      8       RO3     CC3       13	0         14
14     CC3      8       RO3     CC3       14	0         14
15     CC3      8       RO3     CC3       15	0         14
16     CC3      8       RO3     CC3       16	0         14
17     CC3      8       RO3     CC3       17	0         14
18     CC3      8       RO3     CC3       18	0         14
19     CC3      8       RO3     CC3       19	0         14
20     CC3      8       RO3     CC3       20	0         14
21     CC3      8       RO3     CC3       21	0         14
22     CC3      8       RO3     CC3       22	0         14
23     CC3      8       RO3     CC3       23	0         14
24     CC3      8       RO3     CC3       24	0         14
25     CC3      8       RO3     CC3       25	0         14
26     CC3      8       RO3     CC3       26	0         14
27     CC3      8       RO3     CC3       27	0         14
28     CC3      8       RO3     CC3       28	0         14
29     CC3      8       RO3     CC3       29	0         14
30     CC3      8       RO3     CC3       30	0         14
31     CC3      8       RO3     CC3       31	0         14
32     CC3      8       RO3     CC3       32	0         14
33     CC3      8       RO3     CC3       33	0         14
34     CC3      8       RO3     CC3       34	0         14
35     CC3      8       RO3     CC3       35	0         14
36     CC3      8       RO3     CC3       36	0         14
37     CC3      8       RO3     CC3       37	0         14
38     CC3      8       RO3     CC3       38	0         14
39     CC3      8       RO3     CC3       39	0         14
40     CC3      8       RO3     CC3       40	0         14
41     CC3      8       RO3     CC3       41	0         14
42     CC3      8       RO3     CC3       42	0         14
43     CC3      8       RO3     CC3       43	0         14

[ moleculetype ]
; Name            nrexcl
  RO4                3

[ atoms ]

 1     FR4      9       RO4     FR4        1	0        39.9
 2      C4      9       RO4      C4        2	0         14
 3      C4      9       RO4      C4        3	0         14
 4      C4      9       RO4      C4        4	0         14
 5      C4      9       RO4      C4        5	0         14
 6      C4      9       RO4      C4        6	0         14
 7      C4      9       RO4      C4        7	0         14
 8      C4      9       RO4      C4        8	0         14
 9      C4      9       RO4      C4        9	0         14
10      C4      9       RO4      C4       10	0         14
11      C4      9       RO4      C4       11	0         14
12      C4      9       RO4      C4       12	0         14
13      C4      9       RO4      C4       13	0         14
14      C4      9       RO4      C4       14	0         14
15      C4      9       RO4      C4       15	0         14
16      C4      9       RO4      C4       16	0         14
17      C4      9       RO4      C4       17	0         14
18      C4      9       RO4      C4       18	0         14
19      C4      9       RO4      C4       19	0         14
20      C4      9       RO4      C4       20	0         14
21      C4      9       RO4      C4       21	0         14
22      C4      9       RO4      C4       22	0         14
23      C4      9       RO4      C4       23	0         14
24      C4      9       RO4      C4       24	0         14
25      C4      9       RO4      C4       25	0         14
26      C4      9       RO4      C4       26	0         14
27      C4      9       RO4      C4       27	0         14
28      C4      9       RO4      C4       28	0         14
29      C4      9       RO4      C4       29	0         14
30      C4      9       RO4      C4       30	0         14
31      C4      9       RO4      C4       31	0         14
32      C4      9       RO4      C4       32	0         14
33      C4      9       RO4      C4       33	0         14
34      C4      9       RO4      C4       34	0         14
35      C4      9       RO4      C4       35	0         14
36      C4      9       RO4      C4       36	0         14
37      C4      9       RO4      C4       37	0         14
38      C4      9       RO4      C4       38	0         14
39      C4      9       RO4      C4       39	0         14
40      C4      9       RO4      C4       40	0         14
41      C4      9       RO4      C4       41	0         14
42      C4      9       RO4      C4       42	0         14
43      C4      9       RO4      C4       43	0         14

[ moleculetype ]
; Name            nrexcl
  RO5                3

[ atoms ]

 1     FR5      10       RO5     FR5        1	0        39.9
 2      C5      10       RO5      C5        2	0         14
 3      C5      10       RO5      C5        3	0         14
 4      C5      10       RO5      C5        4	0         14
 5      C5      10       RO5      C5        5	0         14
 6      C5      10       RO5      C5        6	0         14
 7      C5      10       RO5      C5        7	0         14
 8      C5      10       RO5      C5        8	0         14
 9      C5      10       RO5      C5        9	0         14
10      C5      10       RO5      C5       10	0         14
11      C5      10       RO5      C5       11	0         14
12      C5      10       RO5      C5       12	0         14
13      C5      10       RO5      C5       13	0         14
14      C5      10       RO5      C5       14	0         14
15      C5      10       RO5      C5       15	0         14
16      C5      10       RO5      C5       16	0         14
17      C5      10       RO5      C5       17	0         14
18      C5      10       RO5      C5       18	0         14
19      C5      10       RO5      C5       19	0         14
20      C5      10       RO5      C5       20	0         14
21      C5      10       RO5      C5       21	0         14
22      C5      10       RO5      C5       22	0         14
23      C5      10       RO5      C5       23	0         14
24      C5      10       RO5      C5       24	0         14
25      C5      10       RO5      C5       25	0         14
26      C5      10       RO5      C5       26	0         14
27      C5      10       RO5      C5       27	0         14
28      C5      10       RO5      C5       28	0         14
29      C5      10       RO5      C5       29	0         14
30      C5      10       RO5      C5       30	0         14
31      C5      10       RO5      C5       31	0         14
32      C5      10       RO5      C5       32	0         14
33      C5      10       RO5      C5       33	0         14
34      C5      10       RO5      C5       34	0         14
35      C5      10       RO5      C5       35	0         14
36      C5      10       RO5      C5       36	0         14
37      C5      10       RO5      C5       37	0         14
38      C5      10       RO5      C5       38	0         14
39      C5      10       RO5      C5       39	0         14
40      C5      10       RO5      C5       40	0         14
41      C5      10       RO5      C5       41	0         14
42      C5      10       RO5      C5       42	0         14
43      C5      10       RO5      C5       43	0         14
