MeCN
 1500
    1MeCN  D1AN    1   0.989   1.487   0.182
    1MeCN  D2AN    2   1.086   1.373   2.986
    1MeCN  C3AN    3   1.015   1.457   0.125
    1MeCN  C4AN    4   1.068   1.393   0.005
    1MeCN  N5AN    5   1.111   1.343   2.928
    2MeCN  D1AN    6   1.636   2.006   2.180
    2MeCN  D2AN    7   1.653   2.225   2.035
    2MeCN  C3AN    8   1.641   2.064   2.141
    2MeCN  C4AN    9   1.650   2.185   2.061
    2MeCN  N5AN   10   1.657   2.283   1.997
    3MeCN  D1AN   11   1.162   1.661   1.364
    3MeCN  D2AN   12   1.214   1.431   1.479
    3MeCN  C3AN   13   1.176   1.600   1.395
    3MeCN  C4AN   14   1.205   1.472   1.459
    3MeCN  N5AN   15   1.228   1.369   1.510
    4MeCN  D1AN   16   2.972   1.145   0.829
    4MeCN  D2AN   17   0.196   1.115   0.924
    4MeCN  C3AN   18   0.017   1.137   0.854
    4MeCN  C4AN   19   0.152   1.120   0.907
    4MeCN  N5AN   20   0.260   1.107   0.950
    5MeCN  D1AN   21   0.070   2.515   0.080
    5MeCN  D2AN   22   0.291   2.650   0.037
    5MeCN  C3AN   23   0.128   2.551   0.068
    5MeCN  C4AN   24   0.251   2.626   0.045
    5MeCN  N5AN   25   0.350   2.686   0.026
    6MeCN  D1AN   26   2.547   1.881   0.716
    6MeCN  D2AN   27   2.336   1.905   0.871
    6MeCN  C3AN   28   2.491   1.888   0.757
    6MeCN  C4AN   29   2.374   1.901   0.843
    6MeCN  N5AN   30   2.280   1.911   0.912
    7MeCN  D1AN   31   2.537   0.162   0.546
    7MeCN  D2AN   32   2.637   0.387   0.639
    7MeCN  C3AN   33   2.564   0.221   0.571
    7MeCN  C4AN   34   2.619   0.346   0.622
    7MeCN  N5AN   35   2.664   0.446   0.663
    8MeCN  D1AN   36   2.321   1.333   2.910
    8MeCN  D2AN   37   2.243   1.089   2.970
    8MeCN  C3AN   38   2.300   1.268   2.926
    8MeCN  C4AN   39   2.257   1.133   2.959
    8MeCN  N5AN   40   2.222   1.024   2.986
    9MeCN  D1AN   41   1.861   2.211   1.336
    9MeCN  D2AN   42   1.773   2.455   1.294
    9MeCN  C3AN   43   1.837   2.276   1.325
    9MeCN  C4AN   44   1.789   2.411   1.301
    9MeCN  N5AN   45   1.750   2.520   1.282
   10MeCN  D1AN   46   2.227   0.475   2.042
   10MeCN  D2AN   47   2.292   0.490   1.788
   10MeCN  C3AN   48   2.244   0.479   1.974
   10MeCN  C4AN   49   2.281   0.488   1.833
   10MeCN  N5AN   50   2.310   0.494   1.720
   11MeCN  D1AN   51   0.408   0.479   0.164
   11MeCN  D2AN   52   0.342   0.554   2.940
   11MeCN  C3AN   53   0.391   0.499   0.099
   11MeCN  C4AN   54   0.354   0.540   2.984
   11MeCN  N5AN   55   0.324   0.574   2.876
   12MeCN  D1AN   56   2.340   1.062   1.442
   12MeCN  D2AN   57   2.495   1.203   1.600
   12MeCN  C3AN   58   2.381   1.099   1.484
   12MeCN  C4AN   59   2.467   1.178   1.571
   12MeCN  N5AN   60   2.536   1.241   1.642
   13MeCN  D1AN   61   0.297   0.766   1.068
   13MeCN  D2AN   62   0.522   0.870   1.158
   13MeCN  C3AN   63   0.357   0.793   1.092
   13MeCN  C4AN   64   0.481   0.851   1.142
   13MeCN  N5AN   65   0.581   0.898   1.181
   14MeCN  D1AN   66   0.044   1.729   1.712
   14MeCN  D2AN   67   2.874   1.615   1.853
   14MeCN  C3AN   68   3.014   1.699   1.750
   14MeCN  C4AN   69   2.908   1.636   1.828
   14MeCN  N5AN   70   2.823   1.585   1.891
   15MeCN  D1AN   71   1.855   2.001   0.600
   15MeCN  D2AN   72   1.596   1.983   0.640
   15MeCN  C3AN   73   1.787   1.996   0.610
   15MeCN  C4AN   74   1.643   1.986   0.633
   15MeCN  N5AN   75   1.527   1.978   0.651
   16MeCN  D1AN   76   2.315   2.429   1.120
   16MeCN  D2AN   77   2.293   2.678   1.036
   16MeCN  C3AN   78   2.309   2.495   1.097
   16MeCN  C4AN   79   2.297   2.633   1.051
   16MeCN  N5AN   80   2.287   2.743   1.013
   17MeCN  D1AN   81   2.761   0.376   0.970
   17MeCN  D2AN   82   2.872   0.587   1.080
   17MeCN  C3AN   83   2.791   0.432   1.000
   17MeCN  C4AN   84   2.852   0.549   1.061
   17MeCN  N5AN   85   2.901   0.643   1.110
   18MeCN  D1AN   86   1.654   0.132   1.225
   18MeCN  D2AN   87   1.541   0.015   1.431
   18MeCN  C3AN   88   1.624   0.101   1.280
   18MeCN  C4AN   89   1.561   0.036   1.394
   18MeCN  N5AN   90   1.511   3.003   1.486
   19MeCN  D1AN   91   1.322   0.348   1.450
   19MeCN  D2AN   92   1.136   0.166   1.418
   19MeCN  C3AN   93   1.273   0.300   1.441
   19MeCN  C4AN   94   1.169   0.199   1.423
   19MeCN  N5AN   95   1.086   0.118   1.409
   20MeCN  D1AN   96   0.713   0.655   2.895
   20MeCN  D2AN   97   0.700   0.897   2.791
   20MeCN  C3AN   98   0.709   0.719   2.867
   20MeCN  C4AN   99   0.702   0.853   2.810
   20MeCN  N5AN  100   0.697   0.961   2.764
   21MeCN  D1AN  101   0.301   2.748   2.724
   21MeCN  D2AN  102   0.384   2.961   2.594
   21MeCN  C3AN  103   0.323   2.805   2.690
   21MeCN  C4AN  104   0.369   2.923   2.618
   21MeCN  N5AN  105   0.406   3.018   2.560
   22MeCN  D1AN  106   2.111   1.921   0.408
   22MeCN  D2AN  107   2.227   2.050   0.211
   22MeCN  C3AN  108   2.142   1.955   0.356
   22MeCN  C4AN  109   2.207   2.027   0.246
   22MeCN  N5AN  110   2.258   2.084   0.158
   23MeCN  D1AN  111   0.899   2.338   1.942
   23MeCN  D2AN  112   0.750   2.208   1.768
   23MeCN  C3AN  113   0.859   2.303   1.896
   23MeCN  C4AN  114   0.777   2.231   1.799
   23MeCN  N5AN  115   0.711   2.173   1.722
   24MeCN  D1AN  116   0.504   0.989   0.754
   24MeCN  D2AN  117   0.513   0.728   0.728
   24MeCN  C3AN  118   0.506   0.920   0.748
   24MeCN  C4AN  119   0.512   0.775   0.733
   24MeCN  N5AN  120   0.516   0.658   0.722
   25MeCN  D1AN  121   1.489   2.110   1.001
   25MeCN  D2AN  122   1.739   2.026   0.997
   25MeCN  C3AN  123   1.556   2.088   1.000
   25MeCN  C4AN  124   1.694   2.041   0.998
   25MeCN  N5AN  125   1.805   2.004   0.996
   26MeCN  D1AN  126   1.888   2.553   0.129
   26MeCN  D2AN  127   1.958   2.732   0.309
   26MeCN  C3AN  128   1.907   2.601   0.177
   26MeCN  C4AN  129   1.945   2.700   0.277
   26MeCN  N5AN  130   1.976   2.780   0.356
   27MeCN  D1AN  131   2.451   1.863   0.017
   27MeCN  D2AN  132   2.366   1.836   2.789
   27MeCN  C3AN  133   2.429   1.856   2.971
   27MeCN  C4AN  134   2.381   1.841   2.833
   27MeCN  N5AN  135   2.344   1.829   2.723
   28MeCN  D1AN  136   2.529   1.287   0.823
   28MeCN  D2AN  137   2.667   1.064   0.807
   28MeCN  C3AN  138   2.566   1.228   0.819
   28MeCN  C4AN  139   2.643   1.104   0.810
   28MeCN  N5AN  140   2.704   1.005   0.803
   29MeCN  D1AN  141   2.005   0.091   0.345
   29MeCN  D2AN  142   1.783   0.176   0.457
   29MeCN  C3AN  143   1.946   0.113   0.375
   29MeCN  C4AN  144   1.823   0.160   0.437
   29MeCN  N5AN  145   1.724   0.198   0.487
   30MeCN  D1AN  146   2.782   2.959   2.958
   30MeCN  D2AN  147   2.986   2.822   2.864
   30MeCN  C3AN  148   2.836   2.923   2.933
   30MeCN  C4AN  149   2.949   2.846   2.881
   30MeCN  N5AN  150   0.020   2.785   2.839
   31MeCN  D1AN  151   1.519   1.281   2.724
   31MeCN  D2AN  152   1.617   1.337   2.487
   31MeCN  C3AN  153   1.545   1.296   2.661
   31MeCN  C4AN  154   1.600   1.327   2.529
   31MeCN  N5AN  155   1.644   1.352   2.424
   32MeCN  D1AN  156   2.991   1.378   0.388
   32MeCN  D2AN  157   0.067   1.431   0.627
   32MeCN  C3AN  158   3.016   1.392   0.452
   32MeCN  C4AN  159   0.050   1.422   0.584
   32MeCN  N5AN  160   0.093   1.446   0.691
   33MeCN  D1AN  161   2.509   1.974   1.334
   33MeCN  D2AN  162   2.609   2.052   1.103
   33MeCN  C3AN  163   2.535   1.994   1.273
   33MeCN  C4AN  164   2.591   2.038   1.145
   33MeCN  N5AN  165   2.635   2.073   1.042
   34MeCN  D1AN  166   2.224   2.556   2.954
   34MeCN  D2AN  167   2.164   2.376   2.771
   34MeCN  C3AN  168   2.208   2.508   2.905
   34MeCN  C4AN  169   2.175   2.409   2.804
   34MeCN  N5AN  170   2.148   2.329   2.723
   35MeCN  D1AN  171   0.167   2.310   1.422
   35MeCN  D2AN  172   0.178   2.106   1.257
   35MeCN  C3AN  173   0.170   2.256   1.379
   35MeCN  C4AN  174   0.176   2.143   1.287
   35MeCN  N5AN  175   0.181   2.052   1.213
   36MeCN  D1AN  176   1.395   1.762   0.373
   36MeCN  D2AN  177   1.399   2.018   0.312
   36MeCN  C3AN  178   1.396   1.830   0.357
   36MeCN  C4AN  179   1.398   1.972   0.323
   36MeCN  N5AN  180   1.400   2.086   0.296
   37MeCN  D1AN  181   0.886   0.266   1.612
   37MeCN  D2AN  182   0.746   0.486   1.648
   37MeCN  C3AN  183   0.849   0.324   1.622
   37MeCN  C4AN  184   0.772   0.446   1.641
   37MeCN  N5AN  185   0.709   0.544   1.657
   38MeCN  D1AN  186   1.047   0.989   0.088
   38MeCN  D2AN  187   1.171   1.083   0.300
   38MeCN  C3AN  188   1.080   1.014   0.145
   38MeCN  C4AN  189   1.149   1.066   0.262
   38MeCN  N5AN  190   1.204   1.108   0.357
   39MeCN  D1AN  191   2.736   2.334   1.202
   39MeCN  D2AN  192   2.856   2.420   1.420
   39MeCN  C3AN  193   2.768   2.357   1.260
   39MeCN  C4AN  194   2.834   2.404   1.381
   39MeCN  N5AN  195   2.888   2.442   1.478
   40MeCN  D1AN  196   0.556   2.502   1.717
   40MeCN  D2AN  197   0.537   2.662   1.508
   40MeCN  C3AN  198   0.551   2.545   1.661
   40MeCN  C4AN  199   0.540   2.633   1.546
   40MeCN  N5AN  200   0.532   2.704   1.453
   41MeCN  D1AN  201   2.838   0.734   0.722
   41MeCN  D2AN  202   0.074   0.760   0.780
   41MeCN  C3AN  203   2.906   0.740   0.738
   41MeCN  C4AN  204   0.028   0.755   0.770
   41MeCN  N5AN  205   0.141   0.767   0.796
   42MeCN  D1AN  206   0.576   0.896   1.563
   42MeCN  D2AN  207   0.375   1.034   1.465
   42MeCN  C3AN  208   0.523   0.933   1.537
   42MeCN  C4AN  209   0.411   1.009   1.482
   42MeCN  N5AN  210   0.321   1.071   1.438
   43MeCN  D1AN  211   0.176   2.988   0.028
   43MeCN  D2AN  212   0.396   0.111   0.014
   43MeCN  C3AN  213   0.235   0.006   0.025
   43MeCN  C4AN  214   0.357   0.086   0.017
   43MeCN  N5AN  215   0.455   0.149   0.011
   44MeCN  D1AN  216   0.700   1.348   2.747
   44MeCN  D2AN  217   0.720   1.275   2.999
   44MeCN  C3AN  218   0.705   1.328   2.814
   44MeCN  C4AN  219   0.716   1.288   2.954
   44MeCN  N5AN  220   0.725   1.255   0.046
   45MeCN  D1AN  221   1.985   2.682   2.448
   45MeCN  D2AN  222   1.959   2.930   2.533
   45MeCN  C3AN  223   1.978   2.748   2.471
   45MeCN  C4AN  224   1.964   2.885   2.518
   45MeCN  N5AN  225   1.952   2.996   2.555
   46MeCN  D1AN  226   1.355   2.251   2.996
   46MeCN  D2AN  227   1.522   2.051   2.965
   46MeCN  C3AN  228   1.399   2.198   2.988
   46MeCN  C4AN  229   1.492   2.087   2.971
   46MeCN  N5AN  230   1.567   1.998   2.957
   47MeCN  D1AN  231   0.444   2.950   1.197
   47MeCN  D2AN  232   0.679   2.869   1.112
   47MeCN  C3AN  233   0.506   2.928   1.175
   47MeCN  C4AN  234   0.637   2.883   1.127
   47MeCN  N5AN  235   0.741   2.847   1.089
   48MeCN  D1AN  236   1.055   2.117   0.359
   48MeCN  D2AN  237   1.022   2.154   0.101
   48MeCN  C3AN  238   1.046   2.127   0.291
   48MeCN  C4AN  239   1.028   2.148   0.148
   48MeCN  N5AN  240   1.013   2.164   0.033
   49MeCN  D1AN  241   1.370   2.435   2.545
   49MeCN  D2AN  242   1.337   2.255   2.355
   49MeCN  C3AN  243   1.361   2.387   2.494
   49MeCN  C4AN  244   1.343   2.287   2.389
   49MeCN  N5AN  245   1.329   2.208   2.305
   50MeCN  D1AN  246   2.656   1.654   0.274
   50MeCN  D2AN  247   2.655   1.392   0.304
   50MeCN  C3AN  248   2.656   1.584   0.282
   50MeCN  C4AN  249   2.655   1.439   0.299
   50MeCN  N5AN  250   2.655   1.323   0.312
   51MeCN  D1AN  251   0.561   2.607   0.241
   51MeCN  D2AN  252   0.570   2.720   0.478
   51MeCN  C3AN  253   0.563   2.637   0.304
   51MeCN  C4AN  254   0.568   2.700   0.435
   51MeCN  N5AN  255   0.572   2.750   0.541
   52MeCN  D1AN  256   1.751   0.767   2.324
   52MeCN  D2AN  257   1.973   0.832   2.450
   52MeCN  C3AN  258   1.810   0.784   2.358
   52MeCN  C4AN  259   1.933   0.821   2.428
   52MeCN  N5AN  260   2.031   0.850   2.484
   53MeCN  D1AN  261   1.264   2.175   0.704
   53MeCN  D2AN  262   1.074   1.996   0.675
   53MeCN  C3AN  263   1.214   2.127   0.696
   53MeCN  C4AN  264   1.108   2.028   0.680
   53MeCN  N5AN  265   1.024   1.948   0.667
   54MeCN  D1AN  266   1.089   0.612   2.228
   54MeCN  D2AN  267   1.125   0.826   2.377
   54MeCN  C3AN  268   1.099   0.669   2.268
   54MeCN  C4AN  269   1.119   0.787   2.350
   54MeCN  N5AN  270   1.135   0.882   2.417
   55MeCN  D1AN  271   1.978   1.179   2.443
   55MeCN  D2AN  272   1.958   1.242   2.698
   55MeCN  C3AN  273   1.973   1.196   2.511
   55MeCN  C4AN  274   1.961   1.231   2.652
   55MeCN  N5AN  275   1.952   1.258   2.765
   56MeCN  D1AN  276   1.544   2.076   2.607
   56MeCN  D2AN  277   1.784   1.971   2.591
   56MeCN  C3AN  278   1.608   2.048   2.603
   56MeCN  C4AN  279   1.741   1.990   2.594
   56MeCN  N5AN  280   1.848   1.943   2.587
   57MeCN  D1AN  281   0.796   0.412   0.674
   57MeCN  D2AN  282   0.817   0.510   0.917
   57MeCN  C3AN  283   0.801   0.438   0.738
   57MeCN  C4AN  284   0.813   0.492   0.873
   57MeCN  N5AN  285   0.822   0.536   0.981
   58MeCN  D1AN  286   0.958   1.187   1.443
   58MeCN  D2AN  287   0.913   1.048   1.661
   58MeCN  C3AN  288   0.946   1.150   1.501
   58MeCN  C4AN  289   0.921   1.073   1.622
   58MeCN  N5AN  290   0.901   1.011   1.719
   59MeCN  D1AN  291   0.791   1.102   2.479
   59MeCN  D2AN  292   0.773   0.893   2.320
   59MeCN  C3AN  293   0.786   1.046   2.437
   59MeCN  C4AN  294   0.776   0.930   2.349
   59MeCN  N5AN  295   0.768   0.837   2.278
   60MeCN  D1AN  296   2.828   1.520   2.248
   60MeCN  D2AN  297   0.058   1.469   2.312
   60MeCN  C3AN  298   2.894   1.506   2.265
   60MeCN  C4AN  299   0.013   1.478   2.301
   60MeCN  N5AN  300   0.124   1.455   2.329
   61MeCN  D1AN  301   2.965   2.044   1.017
   61MeCN  D2AN  302   2.974   2.201   0.807
   61MeCN  C3AN  303   2.967   2.086   0.961
   61MeCN  C4AN  304   2.973   2.173   0.845
   61MeCN  N5AN  305   2.977   2.243   0.751
   62MeCN  D1AN  306   1.988   0.019   1.982
   62MeCN  D2AN  307   1.954   2.793   1.894
   62MeCN  C3AN  308   1.979   2.974   1.959
   62MeCN  C4AN  309   1.960   2.838   1.910
   62MeCN  N5AN  310   1.945   2.728   1.871
   63MeCN  D1AN  311   2.280   2.341   0.452
   63MeCN  D2AN  312   2.278   2.531   0.270
   63MeCN  C3AN  313   2.280   2.391   0.404
   63MeCN  C4AN  314   2.278   2.497   0.303
   63MeCN  N5AN  315   2.277   2.581   0.222
   64MeCN  D1AN  316   0.374   0.638   1.821
   64MeCN  D2AN  317   0.430   0.388   1.879
   64MeCN  C3AN  318   0.389   0.572   1.836
   64MeCN  C4AN  319   0.420   0.433   1.869
   64MeCN  N5AN  320   0.445   0.322   1.894
   65MeCN  D1AN  321   2.282   0.008   1.216
   65MeCN  D2AN  322   2.028   3.009   1.280
   65MeCN  C3AN  323   2.215   0.003   1.233
   65MeCN  C4AN  324   2.074   3.013   1.269
   65MeCN  N5AN  325   1.960   3.004   1.297
   66MeCN  D1AN  326   0.226   2.120   2.711
   66MeCN  D2AN  327   0.126   1.884   2.770
   66MeCN  C3AN  328   0.199   2.057   2.727
   66MeCN  C4AN  329   0.144   1.926   2.760
   66MeCN  N5AN  330   0.099   1.821   2.786
   67MeCN  D1AN  331   0.405   2.438   2.017
   67MeCN  D2AN  332   0.640   2.487   2.125
   67MeCN  C3AN  333   0.467   2.451   2.046
   67MeCN  C4AN  334   0.597   2.478   2.106
   67MeCN  N5AN  335   0.702   2.500   2.154
   68MeCN  D1AN  336   2.334   0.486   0.470
   68MeCN  D2AN  337   2.108   0.447   0.341
   68MeCN  C3AN  338   2.274   0.475   0.436
   68MeCN  C4AN  339   2.149   0.454   0.364
   68MeCN  N5AN  340   2.049   0.436   0.307
   69MeCN  D1AN  341   0.944   2.199   1.013
   69MeCN  D2AN  342   0.767   2.233   0.821
   69MeCN  C3AN  343   0.897   2.208   0.962
   69MeCN  C4AN  344   0.799   2.227   0.855
   69MeCN  N5AN  345   0.720   2.242   0.770
   70MeCN  D1AN  346   1.645   0.564   0.946
   70MeCN  D2AN  347   1.499   0.433   1.121
   70MeCN  C3AN  348   1.606   0.529   0.992
   70MeCN  C4AN  349   1.525   0.456   1.090
   70MeCN  N5AN  350   1.461   0.398   1.168
   71MeCN  D1AN  351   0.743   0.567   2.407
   71MeCN  D2AN  352   0.772   0.319   2.325
   71MeCN  C3AN  353   0.751   0.501   2.385
   71MeCN  C4AN  354   0.767   0.364   2.340
   71MeCN  N5AN  355   0.780   0.253   2.303
   72MeCN  D1AN  356   0.386   1.260   0.047
   72MeCN  D2AN  357   0.162   1.183   2.952
   72MeCN  C3AN  358   0.327   1.239   0.016
   72MeCN  C4AN  359   0.202   1.197   2.973
   72MeCN  N5AN  360   0.103   1.163   2.922
   73MeCN  D1AN  361   2.526   2.581   1.446
   73MeCN  D2AN  362   2.513   2.837   1.387
   73MeCN  C3AN  363   2.523   2.649   1.430
   73MeCN  C4AN  364   2.515   2.791   1.398
   73MeCN  N5AN  365   2.509   2.905   1.372
   74MeCN  D1AN  366   1.198   2.839   1.572
   74MeCN  D2AN  367   1.206   3.010   1.772
   74MeCN  C3AN  368   1.200   2.884   1.625
   74MeCN  C4AN  369   1.204   2.979   1.736
   74MeCN  N5AN  370   1.208   0.035   1.825
   75MeCN  D1AN  371   2.543   1.528   1.618
   75MeCN  D2AN  372   2.670   1.749   1.551
   75MeCN  C3AN  373   2.577   1.587   1.600
   75MeCN  C4AN  374   2.647   1.709   1.563
   75MeCN  N5AN  375   2.704   1.807   1.533
   76MeCN  D1AN  376   0.897   0.933   1.053
   76MeCN  D2AN  377   0.863   0.850   0.806
   76MeCN  C3AN  378   0.888   0.911   0.988
   76MeCN  C4AN  379   0.869   0.865   0.850
   76MeCN  N5AN  380   0.855   0.828   0.740
   77MeCN  D1AN  381   1.193   2.466   1.571
   77MeCN  D2AN  382   0.952   2.558   1.620
   77MeCN  C3AN  383   1.129   2.491   1.584
   77MeCN  C4AN  384   0.995   2.542   1.611
   77MeCN  N5AN  385   0.888   2.583   1.632
   78MeCN  D1AN  386   2.117   1.300   1.050
   78MeCN  D2AN  387   2.330   1.158   1.107
   78MeCN  C3AN  388   2.174   1.262   1.065
   78MeCN  C4AN  389   2.292   1.183   1.097
   78MeCN  N5AN  390   2.387   1.120   1.122
   79MeCN  D1AN  391   0.236   2.388   2.472
   79MeCN  D2AN  392   0.149   2.418   2.226
   79MeCN  C3AN  393   0.213   2.396   2.407
   79MeCN  C4AN  394   0.164   2.413   2.270
   79MeCN  N5AN  395   0.126   2.426   2.160
   80MeCN  D1AN  396   1.416   2.311   0.534
   80MeCN  D2AN  397   1.562   2.484   0.400
   80MeCN  C3AN  398   1.455   2.357   0.498
   80MeCN  C4AN  399   1.536   2.453   0.424
   80MeCN  N5AN  400   1.600   2.530   0.364
   81MeCN  D1AN  401   0.902   0.250   1.105
   81MeCN  D2AN  402   0.727   0.193   1.292
   81MeCN  C3AN  403   0.856   0.235   1.154
   81MeCN  C4AN  404   0.759   0.204   1.259
   81MeCN  N5AN  405   0.681   0.178   1.342
   82MeCN  D1AN  406   0.388   0.273   2.706
   82MeCN  D2AN  407   0.635   0.361   2.723
   82MeCN  C3AN  408   0.454   0.297   2.710
   82MeCN  C4AN  409   0.591   0.345   2.720
   82MeCN  N5AN  410   0.701   0.384   2.728
   83MeCN  D1AN  411   0.141   1.585   0.006
   83MeCN  D2AN  412   0.019   1.680   0.219
   83MeCN  C3AN  413   0.109   1.610   0.063
   83MeCN  C4AN  414   0.041   1.663   0.181
   83MeCN  N5AN  415   3.007   1.705   0.276
   84MeCN  D1AN  416   2.566   1.347   1.952
   84MeCN  D2AN  417   2.780   1.231   2.051
   84MeCN  C3AN  418   2.623   1.316   1.978
   84MeCN  C4AN  419   2.742   1.252   2.033
   84MeCN  N5AN  420   2.837   1.200   2.077
   85MeCN  D1AN  421   1.891   0.458   2.144
   85MeCN  D2AN  422   1.797   0.570   1.926
   85MeCN  C3AN  423   1.866   0.488   2.086
   85MeCN  C4AN  424   1.814   0.550   1.965
   85MeCN  N5AN  425   1.772   0.600   1.868
   86MeCN  D1AN  426   2.106   0.504   2.582
   86MeCN  D2AN  427   2.272   0.538   2.381
   86MeCN  C3AN  428   2.150   0.513   2.529
   86MeCN  C4AN  429   2.242   0.532   2.417
   86MeCN  N5AN  430   2.316   0.547   2.327
   87MeCN  D1AN  431   1.992   1.621   1.418
   87MeCN  D2AN  432   2.191   1.452   1.391
   87MeCN  C3AN  433   2.045   1.576   1.411
   87MeCN  C4AN  434   2.156   1.482   1.396
   87MeCN  N5AN  435   2.244   1.407   1.384
   88MeCN  D1AN  436   0.195   0.501   0.656
   88MeCN  D2AN  437   0.376   0.431   0.478
   88MeCN  C3AN  438   0.243   0.483   0.609
   88MeCN  C4AN  439   0.343   0.444   0.510
   88MeCN  N5AN  440   0.424   0.413   0.431
   89MeCN  D1AN  441   0.697   1.191   1.832
   89MeCN  D2AN  442   0.578   1.374   1.978
   89MeCN  C3AN  443   0.666   1.239   1.871
   89MeCN  C4AN  444   0.599   1.341   1.952
   89MeCN  N5AN  445   0.546   1.422   2.017
   90MeCN  D1AN  446   2.317   1.972   1.753
   90MeCN  D2AN  447   2.306   1.842   1.525
   90MeCN  C3AN  448   2.314   1.937   1.693
   90MeCN  C4AN  449   2.308   1.865   1.566
   90MeCN  N5AN  450   2.303   1.807   1.465
   91MeCN  D1AN  451   1.242   2.000   1.407
   91MeCN  D2AN  452   1.500   2.019   1.364
   91MeCN  C3AN  453   1.310   2.005   1.395
   91MeCN  C4AN  454   1.454   2.016   1.372
   91MeCN  N5AN  455   1.569   2.024   1.353
   92MeCN  D1AN  456   1.679   2.167   0.198
   92MeCN  D2AN  457   1.900   2.248   0.316
   92MeCN  C3AN  458   1.738   2.188   0.230
   92MeCN  C4AN  459   1.860   2.234   0.295
   92MeCN  N5AN  460   1.958   2.270   0.347
   93MeCN  D1AN  461   0.489   1.258   1.200
   93MeCN  D2AN  462   0.623   1.195   0.983
   93MeCN  C3AN  463   0.524   1.242   1.143
   93MeCN  C4AN  464   0.599   1.207   1.022
   93MeCN  N5AN  465   0.659   1.179   0.926
   94MeCN  D1AN  466   2.376   0.588   1.364
   94MeCN  D2AN  467   2.229   0.372   1.392
   94MeCN  C3AN  468   2.337   0.530   1.372
   94MeCN  C4AN  469   2.255   0.410   1.387
   94MeCN  N5AN  470   2.190   0.314   1.399
   95MeCN  D1AN  471   0.956   1.131   2.072
   95MeCN  D2AN  472   1.123   0.940   2.006
   95MeCN  C3AN  473   1.000   1.080   2.055
   95MeCN  C4AN  474   1.093   0.974   2.018
   95MeCN  N5AN  475   1.168   0.889   1.988
   96MeCN  D1AN  476   0.045   1.197   1.266
   96MeCN  D2AN  477   0.190   1.413   1.228
   96MeCN  C3AN  478   0.084   1.254   1.256
   96MeCN  C4AN  479   0.164   1.374   1.235
   96MeCN  N5AN  480   0.228   1.471   1.218
   97MeCN  D1AN  481   1.185   1.058   1.129
   97MeCN  D2AN  482   1.433   1.115   1.063
   97MeCN  C3AN  483   1.251   1.073   1.111
   97MeCN  C4AN  484   1.388   1.105   1.075
   97MeCN  N5AN  485   1.499   1.130   1.046
   98MeCN  D1AN  486   1.071   1.730   1.055
   98MeCN  D2AN  487   1.180   1.970   1.044
   98MeCN  C3AN  488   1.100   1.794   1.052
   98MeCN  C4AN  489   1.160   1.927   1.046
   98MeCN  N5AN  490   1.209   2.033   1.041
   99MeCN  D1AN  491   1.406   0.396   2.394
   99MeCN  D2AN  492   1.423   0.468   2.646
   99MeCN  C3AN  493   1.410   0.415   2.461
   99MeCN  C4AN  494   1.420   0.455   2.601
   99MeCN  N5AN  495   1.428   0.487   2.713
  100MeCN  D1AN  496   1.480   0.265   1.734
  100MeCN  D2AN  497   1.605   0.065   1.849
  100MeCN  C3AN  498   1.513   0.212   1.765
  100MeCN  C4AN  499   1.582   0.101   1.829
  100MeCN  N5AN  500   1.638   0.011   1.880
  101MeCN  D1AN  501   0.351   1.610   2.041
  101MeCN  D2AN  502   0.138   1.751   2.104
  101MeCN  C3AN  503   0.294   1.647   2.058
  101MeCN  C4AN  504   0.176   1.725   2.093
  101MeCN  N5AN  505   0.082   1.788   2.121
  102MeCN  D1AN  506   1.827   1.675   2.417
  102MeCN  D2AN  507   1.715   1.691   2.180
  102MeCN  C3AN  508   1.797   1.679   2.354
  102MeCN  C4AN  509   1.735   1.688   2.222
  102MeCN  N5AN  510   1.685   1.695   2.117
  103MeCN  D1AN  511   0.668   2.547   0.849
  103MeCN  D2AN  512   0.435   2.662   0.891
  103MeCN  C3AN  513   0.606   2.578   0.860
  103MeCN  C4AN  514   0.477   2.642   0.883
  103MeCN  N5AN  515   0.373   2.693   0.902
  104MeCN  D1AN  516   1.435   0.615   3.003
  104MeCN  D2AN  517   1.402   0.876   3.000
  104MeCN  C3AN  518   1.426   0.684   3.002
  104MeCN  C4AN  519   1.408   0.829   3.000
  104MeCN  N5AN  520   1.393   0.945   2.999
  105MeCN  D1AN  521   0.835   2.496   0.155
  105MeCN  D2AN  522   1.093   2.523   0.111
  105MeCN  C3AN  523   0.903   2.503   0.144
  105MeCN  C4AN  524   1.046   2.518   0.119
  105MeCN  N5AN  525   1.161   2.530   0.100
  106MeCN  D1AN  526   0.758   1.594   2.165
  106MeCN  D2AN  527   0.995   1.667   2.253
  106MeCN  C3AN  528   0.821   1.614   2.188
  106MeCN  C4AN  529   0.952   1.654   2.237
  106MeCN  N5AN  530   1.058   1.686   2.277
  107MeCN  D1AN  531   0.003   1.739   1.321
  107MeCN  D2AN  532   2.791   1.704   1.202
  107MeCN  C3AN  533   2.962   1.729   1.289
  107MeCN  C4AN  534   2.833   1.710   1.223
  107MeCN  N5AN  535   2.729   1.695   1.171
  108MeCN  D1AN  536   2.858   0.078   0.724
  108MeCN  D2AN  537   2.906   2.847   0.661
  108MeCN  C3AN  538   2.871   0.012   0.707
  108MeCN  C4AN  539   2.898   2.892   0.672
  108MeCN  N5AN  540   2.919   2.781   0.644
  109MeCN  D1AN  541   1.995   2.119   2.870
  109MeCN  D2AN  542   2.027   1.876   2.965
  109MeCN  C3AN  543   2.004   2.055   2.896
  109MeCN  C4AN  544   2.021   1.920   2.948
  109MeCN  N5AN  545   2.036   1.812   2.990
  110MeCN  D1AN  546   2.996   0.809   0.028
  110MeCN  D2AN  547   0.226   0.858   0.093
  110MeCN  C3AN  548   0.042   0.822   0.046
  110MeCN  C4AN  549   0.181   0.849   0.082
  110MeCN  N5AN  550   0.292   0.871   0.111
  111MeCN  D1AN  551   2.046   1.877   1.223
  111MeCN  D2AN  552   2.181   2.102   1.205
  111MeCN  C3AN  553   2.082   1.937   1.218
  111MeCN  C4AN  554   2.157   2.062   1.208
  111MeCN  N5AN  555   2.217   2.162   1.201
  112MeCN  D1AN  556   2.619   1.269   2.550
  112MeCN  D2AN  557   2.474   1.237   2.333
  112MeCN  C3AN  558   2.580   1.260   2.493
  112MeCN  C4AN  559   2.500   1.242   2.372
  112MeCN  N5AN  560   2.436   1.228   2.275
  113MeCN  D1AN  561   1.932   1.192   1.520
  113MeCN  D2AN  562   1.962   1.275   1.768
  113MeCN  C3AN  563   1.940   1.214   1.586
  113MeCN  C4AN  564   1.956   1.260   1.724
  113MeCN  N5AN  565   1.969   1.297   1.834
  114MeCN  D1AN  566   2.319   1.987   2.100
  114MeCN  D2AN  567   2.062   2.036   2.072
  114MeCN  C3AN  568   2.251   2.000   2.092
  114MeCN  C4AN  569   2.108   2.027   2.077
  114MeCN  N5AN  570   1.994   2.049   2.064
  115MeCN  D1AN  571   1.365   0.796   2.608
  115MeCN  D2AN  572   1.595   0.923   2.622
  115MeCN  C3AN  573   1.426   0.830   2.611
  115MeCN  C4AN  574   1.553   0.901   2.619
  115MeCN  N5AN  575   1.656   0.957   2.626
  116MeCN  D1AN  576   2.373   1.694   1.208
  116MeCN  D2AN  577   2.407   1.552   0.989
  116MeCN  C3AN  578   2.382   1.656   1.150
  116MeCN  C4AN  579   2.401   1.578   1.028
  116MeCN  N5AN  580   2.415   1.515   0.930
  117MeCN  D1AN  581   1.360   0.642   1.296
  117MeCN  D2AN  582   1.197   0.830   1.381
  117MeCN  C3AN  583   1.317   0.692   1.319
  117MeCN  C4AN  584   1.227   0.796   1.366
  117MeCN  N5AN  585   1.154   0.880   1.404
  118MeCN  D1AN  586   2.219   2.946   0.249
  118MeCN  D2AN  587   2.438   2.947   0.103
  118MeCN  C3AN  588   2.277   2.947   0.210
  118MeCN  C4AN  589   2.399   2.947   0.129
  118MeCN  N5AN  590   2.496   2.948   0.064
  119MeCN  D1AN  591   0.875   1.660   0.525
  119MeCN  D2AN  592   0.901   1.781   0.293
  119MeCN  C3AN  593   0.882   1.693   0.463
  119MeCN  C4AN  594   0.897   1.760   0.334
  119MeCN  N5AN  595   0.908   1.813   0.231
  120MeCN  D1AN  596   1.767   1.725   1.221
  120MeCN  D2AN  597   1.508   1.704   1.176
  120MeCN  C3AN  598   1.698   1.719   1.209
  120MeCN  C4AN  599   1.555   1.708   1.184
  120MeCN  N5AN  600   1.440   1.699   1.164
  121MeCN  D1AN  601   0.986   2.026   1.687
  121MeCN  D2AN  602   1.136   1.811   1.709
  121MeCN  C3AN  603   1.026   1.969   1.693
  121MeCN  C4AN  604   1.109   1.850   1.705
  121MeCN  N5AN  605   1.176   1.754   1.715
  122MeCN  D1AN  606   0.366   0.770   2.169
  122MeCN  D2AN  607   0.433   1.007   2.260
  122MeCN  C3AN  608   0.384   0.833   2.193
  122MeCN  C4AN  609   0.421   0.964   2.244
  122MeCN  N5AN  610   0.451   1.069   2.285
  123MeCN  D1AN  611   2.419   0.160   1.604
  123MeCN  D2AN  612   2.232   2.998   1.641
  123MeCN  C3AN  613   2.369   0.112   1.614
  123MeCN  C4AN  614   2.265   0.011   1.634
  123MeCN  N5AN  615   2.182   2.950   1.651
  124MeCN  D1AN  616   0.757   0.716   1.286
  124MeCN  D2AN  617   0.956   0.554   1.341
  124MeCN  C3AN  618   0.810   0.673   1.301
  124MeCN  C4AN  619   0.921   0.583   1.331
  124MeCN  N5AN  620   1.009   0.511   1.356
  125MeCN  D1AN  621   0.872   1.038   0.560
  125MeCN  D2AN  622   0.892   1.286   0.474
  125MeCN  C3AN  623   0.878   1.104   0.537
  125MeCN  C4AN  624   0.889   1.241   0.489
  125MeCN  N5AN  625   0.897   1.351   0.451
  126MeCN  D1AN  626   0.757   2.086   2.313
  126MeCN  D2AN  627   0.826   1.943   2.523
  126MeCN  C3AN  628   0.775   2.048   2.368
  126MeCN  C4AN  629   0.813   1.969   2.485
  126MeCN  N5AN  630   0.844   1.906   2.579
  127MeCN  D1AN  631   0.848   2.594   1.288
  127MeCN  D2AN  632   0.683   2.415   1.188
  127MeCN  C3AN  633   0.804   2.546   1.262
  127MeCN  C4AN  634   0.713   2.447   1.206
  127MeCN  N5AN  635   0.639   2.368   1.161
  128MeCN  D1AN  636   2.873   1.844   0.581
  128MeCN  D2AN  637   2.898   2.056   0.428
  128MeCN  C3AN  638   2.880   1.900   0.541
  128MeCN  C4AN  639   2.894   2.018   0.455
  128MeCN  N5AN  640   2.905   2.112   0.387
  129MeCN  D1AN  641   0.598   1.619   2.629
  129MeCN  D2AN  642   0.521   1.844   2.741
  129MeCN  C3AN  643   0.578   1.678   2.659
  129MeCN  C4AN  644   0.535   1.803   2.721
  129MeCN  N5AN  645   0.500   1.903   2.771
  130MeCN  D1AN  646   1.004   2.515   2.260
  130MeCN  D2AN  647   1.065   2.637   2.486
  130MeCN  C3AN  648   1.020   2.547   2.320
  130MeCN  C4AN  649   1.054   2.615   2.445
  130MeCN  N5AN  650   1.081   2.669   2.545
  131MeCN  D1AN  651   0.970   1.522   2.613
  131MeCN  D2AN  652   1.171   1.368   2.544
  131MeCN  C3AN  653   1.023   1.481   2.595
  131MeCN  C4AN  654   1.135   1.396   2.556
  131MeCN  N5AN  655   1.224   1.327   2.526
  132MeCN  D1AN  656   1.465   2.664   1.399
  132MeCN  D2AN  657   1.434   2.749   1.152
  132MeCN  C3AN  658   1.457   2.687   1.334
  132MeCN  C4AN  659   1.440   2.734   1.197
  132MeCN  N5AN  660   1.426   2.771   1.087
  133MeCN  D1AN  661   2.379   2.598   0.681
  133MeCN  D2AN  662   2.494   2.834   0.664
  133MeCN  C3AN  663   2.409   2.661   0.677
  133MeCN  C4AN  664   2.473   2.792   0.667
  133MeCN  N5AN  665   2.525   2.897   0.660
  134MeCN  D1AN  666   1.816   1.526   0.597
  134MeCN  D2AN  667   1.762   1.456   0.350
  134MeCN  C3AN  668   1.802   1.507   0.532
  134MeCN  C4AN  669   1.771   1.468   0.394
  134MeCN  N5AN  670   1.747   1.437   0.284
  135MeCN  D1AN  671   0.289   0.810   0.440
  135MeCN  D2AN  672   0.131   1.011   0.504
  135MeCN  C3AN  673   0.247   0.863   0.457
  135MeCN  C4AN  674   0.159   0.975   0.493
  135MeCN  N5AN  675   0.089   1.064   0.521
  136MeCN  D1AN  676   1.540   1.305   1.483
  136MeCN  D2AN  677   1.679   1.523   1.530
  136MeCN  C3AN  678   1.577   1.363   1.495
  136MeCN  C4AN  679   1.654   1.484   1.521
  136MeCN  N5AN  680   1.716   1.581   1.543
  137MeCN  D1AN  681   0.175   1.501   2.715
  137MeCN  D2AN  682   2.954   1.411   2.659
  137MeCN  C3AN  683   0.111   1.477   2.700
  137MeCN  C4AN  684   2.997   1.427   2.669
  137MeCN  N5AN  685   2.890   1.387   2.644
  138MeCN  D1AN  686   2.220   3.002   2.844
  138MeCN  D2AN  687   2.279   2.800   2.688
  138MeCN  C3AN  688   2.236   2.949   2.803
  138MeCN  C4AN  689   2.269   2.836   2.716
  138MeCN  N5AN  690   2.295   2.746   2.646
  139MeCN  D1AN  691   0.739   2.982   0.796
  139MeCN  D2AN  692   0.910   2.862   0.637
  139MeCN  C3AN  693   0.784   2.950   0.754
  139MeCN  C4AN  694   0.879   2.884   0.666
  139MeCN  N5AN  695   0.956   2.830   0.595
  140MeCN  D1AN  696   0.191   2.134   0.536
  140MeCN  D2AN  697   0.267   2.351   0.408
  140MeCN  C3AN  698   0.211   2.192   0.502
  140MeCN  C4AN  699   0.253   2.312   0.431
  140MeCN  N5AN  700   0.287   2.409   0.374
  141MeCN  D1AN  701   1.345   1.084   1.803
  141MeCN  D2AN  702   1.564   1.022   1.671
  141MeCN  C3AN  703   1.403   1.068   1.768
  141MeCN  C4AN  704   1.525   1.033   1.695
  141MeCN  N5AN  705   1.622   1.006   1.636
  142MeCN  D1AN  706   1.220   2.659   0.351
  142MeCN  D2AN  707   1.304   2.861   0.498
  142MeCN  C3AN  708   1.242   2.712   0.390
  142MeCN  C4AN  709   1.289   2.824   0.472
  142MeCN  N5AN  710   1.326   2.914   0.537
  143MeCN  D1AN  711   2.706   2.123   1.666
  143MeCN  D2AN  712   2.964   2.082   1.635
  143MeCN  C3AN  713   2.774   2.112   1.658
  143MeCN  C4AN  714   2.917   2.090   1.641
  143MeCN  N5AN  715   0.012   2.071   1.627
  144MeCN  D1AN  716   1.027   0.474   2.871
  144MeCN  D2AN  717   1.056   0.462   2.610
  144MeCN  C3AN  718   1.034   0.471   2.802
  144MeCN  C4AN  719   1.051   0.464   2.657
  144MeCN  N5AN  720   1.064   0.459   2.541
  145MeCN  D1AN  721   1.714   2.980   2.854
  145MeCN  D2AN  722   1.889   2.785   2.871
  145MeCN  C3AN  723   1.760   2.928   2.859
  145MeCN  C4AN  724   1.858   2.820   2.868
  145MeCN  N5AN  725   1.936   2.733   2.875
  146MeCN  D1AN  726   2.026   1.651   2.694
  146MeCN  D2AN  727   2.226   1.488   2.646
  146MeCN  C3AN  728   2.079   1.608   2.682
  146MeCN  C4AN  729   2.190   1.517   2.655
  146MeCN  N5AN  730   2.280   1.445   2.634
  147MeCN  D1AN  731   1.052   0.045   0.319
  147MeCN  D2AN  732   0.886   2.888   0.217
  147MeCN  C3AN  733   1.008   3.018   0.292
  147MeCN  C4AN  734   0.916   2.920   0.235
  147MeCN  N5AN  735   0.842   2.842   0.190
  148MeCN  D1AN  736   0.439   0.021   1.731
  148MeCN  D2AN  737   0.490   2.860   1.916
  148MeCN  C3AN  738   0.453   2.993   1.780
  148MeCN  C4AN  739   0.481   2.893   1.883
  148MeCN  N5AN  740   0.503   2.813   1.965
  149MeCN  D1AN  741   2.403   1.073   0.229
  149MeCN  D2AN  742   2.383   1.095   0.490
  149MeCN  C3AN  743   2.397   1.079   0.298
  149MeCN  C4AN  744   2.386   1.091   0.443
  149MeCN  N5AN  745   2.377   1.101   0.560
  150MeCN  D1AN  746   0.640   1.642   1.293
  150MeCN  D2AN  747   0.861   1.539   1.194
  150MeCN  C3AN  748   0.698   1.614   1.267
  150MeCN  C4AN  749   0.821   1.557   1.212
  150MeCN  N5AN  750   0.919   1.512   1.168
  151MeCN  D1AN  751   2.608   0.627   2.603
  151MeCN  D2AN  752   2.824   0.503   2.519
  151MeCN  C3AN  753   2.666   0.595   2.581
  151MeCN  C4AN  754   2.785   0.526   2.534
  151MeCN  N5AN  755   2.882   0.470   2.497
  152MeCN  D1AN  756   0.669   1.843   1.953
  152MeCN  D2AN  757   0.538   2.051   2.045
  152MeCN  C3AN  758   0.635   1.898   1.977
  152MeCN  C4AN  759   0.561   2.014   2.028
  152MeCN  N5AN  760   0.503   2.106   2.069
  153MeCN  D1AN  761   2.639   2.872   0.379
  153MeCN  D2AN  762   2.862   2.794   0.262
  153MeCN  C3AN  763   2.698   2.851   0.348
  153MeCN  C4AN  764   2.822   2.808   0.283
  153MeCN  N5AN  765   2.921   2.774   0.231
  154MeCN  D1AN  766   0.669   2.733   2.990
  154MeCN  D2AN  767   0.696   2.769   2.731
  154MeCN  C3AN  768   0.676   2.743   2.922
  154MeCN  C4AN  769   0.691   2.763   2.778
  154MeCN  N5AN  770   0.703   2.779   2.663
  155MeCN  D1AN  771   0.432   2.946   0.715
  155MeCN  D2AN  772   0.236   0.100   0.699
  155MeCN  C3AN  773   0.380   2.992   0.710
  155MeCN  C4AN  774   0.271   0.069   0.702
  155MeCN  N5AN  775   0.184   0.146   0.695
  156MeCN  D1AN  776   1.284   0.243   2.973
  156MeCN  D2AN  777   1.438   0.122   2.799
  156MeCN  C3AN  778   1.325   0.211   2.927
  156MeCN  C4AN  779   1.410   0.144   2.830
  156MeCN  N5AN  780   1.479   0.089   2.753
  157MeCN  D1AN  781   1.398   1.345   0.187
  157MeCN  D2AN  782   1.401   1.470   0.419
  157MeCN  C3AN  783   1.398   1.378   0.249
  157MeCN  C4AN  784   1.400   1.447   0.377
  157MeCN  N5AN  785   1.401   1.503   0.480
  158MeCN  D1AN  786   0.010   0.312   2.222
  158MeCN  D2AN  787   0.134   0.527   2.134
  158MeCN  C3AN  788   0.043   0.369   2.199
  158MeCN  C4AN  789   0.111   0.488   2.150
  158MeCN  N5AN  790   0.166   0.584   2.111
  159MeCN  D1AN  791   0.624   0.951   0.121
  159MeCN  D2AN  792   0.556   1.042   0.358
  159MeCN  C3AN  793   0.606   0.975   0.183
  159MeCN  C4AN  794   0.568   1.026   0.315
  159MeCN  N5AN  795   0.538   1.066   0.421
  160MeCN  D1AN  796   1.096   1.104   2.702
  160MeCN  D2AN  797   1.077   0.869   2.819
  160MeCN  C3AN  798   1.091   1.042   2.733
  160MeCN  C4AN  799   1.080   0.912   2.798
  160MeCN  N5AN  800   1.072   0.807   2.850
  161MeCN  D1AN  801   1.394   1.731   2.759
  161MeCN  D2AN  802   1.338   1.679   3.011
  161MeCN  C3AN  803   1.379   1.717   2.826
  161MeCN  C4AN  804   1.348   1.688   2.965
  161MeCN  N5AN  805   1.323   1.665   0.058
  162MeCN  D1AN  806   1.830   1.619   1.821
  162MeCN  D2AN  807   2.073   1.691   1.892
  162MeCN  C3AN  808   1.895   1.638   1.840
  162MeCN  C4AN  809   2.029   1.679   1.880
  162MeCN  N5AN  810   2.137   1.711   1.911
  163MeCN  D1AN  811   1.812   2.468   2.646
  163MeCN  D2AN  812   1.768   2.383   2.891
  163MeCN  C3AN  813   1.801   2.445   2.711
  163MeCN  C4AN  814   1.776   2.399   2.847
  163MeCN  N5AN  815   1.757   2.361   2.956
  164MeCN  D1AN  816   0.783   2.784   1.932
  164MeCN  D2AN  817   1.013   2.662   1.969
  164MeCN  C3AN  818   0.844   2.752   1.941
  164MeCN  C4AN  819   0.971   2.684   1.962
  164MeCN  N5AN  820   1.074   2.629   1.978
  165MeCN  D1AN  821   0.471   0.119   2.173
  165MeCN  D2AN  822   0.390   0.310   2.336
  165MeCN  C3AN  823   0.449   0.170   2.217
  165MeCN  C4AN  824   0.405   0.276   2.307
  165MeCN  N5AN  825   0.369   0.360   2.379
  166MeCN  D1AN  826   1.706   2.761   1.686
  166MeCN  D2AN  827   1.470   2.657   1.739
  166MeCN  C3AN  828   1.644   2.734   1.700
  166MeCN  C4AN  829   1.513   2.676   1.730
  166MeCN  N5AN  830   1.408   2.629   1.753
  167MeCN  D1AN  831   1.128   2.394   2.844
  167MeCN  D2AN  832   1.011   2.305   2.627
  167MeCN  C3AN  833   1.097   2.370   2.787
  167MeCN  C4AN  834   1.032   2.321   2.666
  167MeCN  N5AN  835   0.980   2.281   2.569
  168MeCN  D1AN  836   2.280   0.496   2.999
  168MeCN  D2AN  837   2.175   0.256   3.012
  168MeCN  C3AN  838   2.252   0.433   3.002
  168MeCN  C4AN  839   2.194   0.299   3.010
  168MeCN  N5AN  840   2.147   0.192   3.016
  169MeCN  D1AN  841   1.481   0.458   0.410
  169MeCN  D2AN  842   1.430   0.413   0.664
  169MeCN  C3AN  843   1.467   0.446   0.477
  169MeCN  C4AN  844   1.439   0.421   0.619
  169MeCN  N5AN  845   1.416   0.402   0.732
  170MeCN  D1AN  846   1.117   0.640   0.221
  170MeCN  D2AN  847   1.136   0.378   0.206
  170MeCN  C3AN  848   1.122   0.570   0.217
  170MeCN  C4AN  849   1.132   0.425   0.209
  170MeCN  N5AN  850   1.141   0.308   0.202
  171MeCN  D1AN  851   1.339   2.829   2.588
  171MeCN  D2AN  852   1.584   2.738   2.563
  171MeCN  C3AN  853   1.404   2.805   2.582
  171MeCN  C4AN  854   1.540   2.754   2.567
  171MeCN  N5AN  855   1.649   2.714   2.556
  172MeCN  D1AN  856   1.284   2.401   1.120
  172MeCN  D2AN  857   1.090   2.308   1.271
  172MeCN  C3AN  858   1.233   2.376   1.160
  172MeCN  C4AN  859   1.125   2.325   1.244
  172MeCN  N5AN  860   1.039   2.283   1.311
  173MeCN  D1AN  861   0.797   0.167   0.018
  173MeCN  D2AN  862   0.771   0.421   0.084
  173MeCN  C3AN  863   0.790   0.234   0.036
  173MeCN  C4AN  864   0.776   0.375   0.072
  173MeCN  N5AN  865   0.764   0.488   0.101
  174MeCN  D1AN  866   0.097   0.162   2.453
  174MeCN  D2AN  867   0.069   0.153   2.714
  174MeCN  C3AN  868   0.089   0.160   2.522
  174MeCN  C4AN  869   0.074   0.155   2.668
  174MeCN  N5AN  870   0.061   0.151   2.784
  175MeCN  D1AN  871   1.563   1.052   0.370
  175MeCN  D2AN  872   1.439   0.821   0.345
  175MeCN  C3AN  873   1.530   0.990   0.364
  175MeCN  C4AN  874   1.462   0.862   0.350
  175MeCN  N5AN  875   1.407   0.760   0.339
  176MeCN  D1AN  876   0.387   2.126   1.613
  176MeCN  D2AN  877   0.343   1.902   1.745
  176MeCN  C3AN  878   0.375   2.066   1.648
  176MeCN  C4AN  879   0.351   1.943   1.721
  176MeCN  N5AN  880   0.331   1.843   1.780
  177MeCN  D1AN  881   2.349   0.919   2.259
  177MeCN  D2AN  882   2.146   0.807   2.135
  177MeCN  C3AN  883   2.295   0.889   2.226
  177MeCN  C4AN  884   2.182   0.827   2.158
  177MeCN  N5AN  885   2.092   0.777   2.102
  178MeCN  D1AN  886   1.974   0.892   2.831
  178MeCN  D2AN  887   1.947   0.631   2.832
  178MeCN  C3AN  888   1.967   0.823   2.831
  178MeCN  C4AN  889   1.952   0.678   2.832
  178MeCN  N5AN  890   1.940   0.561   2.833
  179MeCN  D1AN  891   0.825   2.876   1.414
  179MeCN  D2AN  892   0.810   2.980   1.655
  179MeCN  C3AN  893   0.821   2.904   1.478
  179MeCN  C4AN  894   0.812   2.961   1.611
  179MeCN  N5AN  895   0.805   3.007   1.719
  180MeCN  D1AN  896   2.772   1.051   0.522
  180MeCN  D2AN  897   2.785   0.955   0.277
  180MeCN  C3AN  898   2.776   1.025   0.457
  180MeCN  C4AN  899   2.783   0.972   0.321
  180MeCN  N5AN  900   2.789   0.929   0.212
  181MeCN  D1AN  901   1.648   2.860   0.431
  181MeCN  D2AN  902   1.715   2.794   0.677
  181MeCN  C3AN  903   1.665   2.842   0.496
  181MeCN  C4AN  904   1.703   2.806   0.632
  181MeCN  N5AN  905   1.733   2.777   0.742
  182MeCN  D1AN  906   2.611   2.223   0.188
  182MeCN  D2AN  907   2.536   2.105   0.411
  182MeCN  C3AN  908   2.591   2.192   0.247
  182MeCN  C4AN  909   2.549   2.126   0.371
  182MeCN  N5AN  910   2.516   2.074   0.470
  183MeCN  D1AN  911   2.340   2.645   2.334
  183MeCN  D2AN  912   2.404   2.393   2.291
  183MeCN  C3AN  913   2.357   2.578   2.322
  183MeCN  C4AN  914   2.392   2.438   2.298
  183MeCN  N5AN  915   2.421   2.326   2.279
  184MeCN  D1AN  916   2.788   1.832   2.158
  184MeCN  D2AN  917   2.615   1.915   1.979
  184MeCN  C3AN  918   2.742   1.854   2.111
  184MeCN  C4AN  919   2.646   1.900   2.011
  184MeCN  N5AN  920   2.569   1.937   1.931
  185MeCN  D1AN  921   2.581   2.842   1.041
  185MeCN  D2AN  922   2.598   0.072   0.960
  185MeCN  C3AN  923   2.585   2.909   1.020
  185MeCN  C4AN  924   2.595   0.027   0.975
  185MeCN  N5AN  925   2.603   0.138   0.939
  186MeCN  D1AN  926   1.903   0.158   1.521
  186MeCN  D2AN  927   1.972   0.257   1.755
  186MeCN  C3AN  928   1.921   0.184   1.583
  186MeCN  C4AN  929   1.959   0.239   1.713
  186MeCN  N5AN  930   1.990   0.284   1.817
  187MeCN  D1AN  931   1.353   1.500   2.224
  187MeCN  D2AN  932   1.418   1.659   2.423
  187MeCN  C3AN  933   1.370   1.542   2.276
  187MeCN  C4AN  934   1.406   1.630   2.387
  187MeCN  N5AN  935   1.436   1.701   2.476
  188MeCN  D1AN  936   2.941   1.100   2.628
  188MeCN  D2AN  937   2.899   0.863   2.735
  188MeCN  C3AN  938   2.930   1.037   2.656
  188MeCN  C4AN  939   2.907   0.906   2.716
  188MeCN  N5AN  940   2.888   0.801   2.763
  189MeCN  D1AN  941   1.994   0.562   1.589
  189MeCN  D2AN  942   2.045   0.819   1.574
  189MeCN  C3AN  943   2.007   0.630   1.585
  189MeCN  C4AN  944   2.036   0.773   1.576
  189MeCN  N5AN  945   2.059   0.887   1.570
  190MeCN  D1AN  946   1.704   2.593   2.206
  190MeCN  D2AN  947   1.694   2.381   2.362
  190MeCN  C3AN  948   1.701   2.537   2.247
  190MeCN  C4AN  949   1.696   2.419   2.334
  190MeCN  N5AN  950   1.691   2.325   2.403
  191MeCN  D1AN  951   0.718   2.511   2.517
  191MeCN  D2AN  952   0.554   2.305   2.513
  191MeCN  C3AN  953   0.675   2.457   2.516
  191MeCN  C4AN  954   0.584   2.342   2.514
  191MeCN  N5AN  955   0.511   2.251   2.512
  192MeCN  D1AN  956   2.347   0.337   0.863
  192MeCN  D2AN  957   2.434   0.537   1.010
  192MeCN  C3AN  958   2.370   0.390   0.902
  192MeCN  C4AN  959   2.418   0.501   0.983
  192MeCN  N5AN  960   2.457   0.590   1.048
  193MeCN  D1AN  961   2.160   2.294   1.522
  193MeCN  D2AN  962   2.421   2.294   1.490
  193MeCN  C3AN  963   2.229   2.294   1.513
  193MeCN  C4AN  964   2.374   2.294   1.496
  193MeCN  N5AN  965   2.490   2.294   1.482
  194MeCN  D1AN  966   0.939   0.131   2.000
  194MeCN  D2AN  967   0.963   0.393   1.984
  194MeCN  C3AN  968   0.945   0.201   1.996
  194MeCN  C4AN  969   0.959   0.346   1.987
  194MeCN  N5AN  970   0.970   0.462   1.980
  195MeCN  D1AN  971   2.360   1.011   2.605
  195MeCN  D2AN  972   2.348   0.770   2.710
  195MeCN  C3AN  973   2.357   0.947   2.633
  195MeCN  C4AN  974   2.350   0.813   2.691
  195MeCN  N5AN  975   2.345   0.706   2.738
  196MeCN  D1AN  976   0.280   2.026   2.381
  196MeCN  D2AN  977   0.463   1.842   2.335
  196MeCN  C3AN  978   0.329   1.977   2.369
  196MeCN  C4AN  979   0.430   1.875   2.343
  196MeCN  N5AN  980   0.512   1.794   2.323
  197MeCN  D1AN  981   2.589   1.374   1.314
  197MeCN  D2AN  982   2.759   1.314   1.123
  197MeCN  C3AN  983   2.634   1.358   1.264
  197MeCN  C4AN  984   2.729   1.325   1.158
  197MeCN  N5AN  985   2.805   1.298   1.073
  198MeCN  D1AN  986   0.015   0.858   1.334
  198MeCN  D2AN  987   0.185   0.715   1.475
  198MeCN  C3AN  988   0.060   0.820   1.371
  198MeCN  C4AN  989   0.154   0.740   1.450
  198MeCN  N5AN  990   0.230   0.677   1.513
  199MeCN  D1AN  991   1.283   1.442   1.834
  199MeCN  D2AN  992   1.033   1.419   1.914
  199MeCN  C3AN  993   1.217   1.436   1.855
  199MeCN  C4AN  994   1.078   1.423   1.900
  199MeCN  N5AN  995   0.967   1.413   1.935
  200MeCN  D1AN  996   1.732   1.321   2.137
  200MeCN  D2AN  997   1.613   1.359   1.905
  200MeCN  C3AN  998   1.701   1.331   2.075
  200MeCN  C4AN  999   1.634   1.352   1.947
  200MeCN  N5AN 1000   1.582   1.369   1.844
  201MeCN  D1AN 1001   1.156   1.911   2.419
  201MeCN  D2AN 1002   1.241   2.016   2.645
  201MeCN  C3AN 1003   1.178   1.939   2.479
  201MeCN  C4AN 1004   1.225   1.997   2.604
  201MeCN  N5AN 1005   1.263   2.044   2.705
  202MeCN  D1AN 1006   1.877   0.307   0.031
  202MeCN  D2AN 1007   1.638   0.381   0.110
  202MeCN  C3AN 1008   1.814   0.326   0.052
  202MeCN  C4AN 1009   1.681   0.368   0.096
  202MeCN  N5AN 1010   1.574   0.401   0.131
  203MeCN  D1AN 1011   2.000   2.385   1.990
  203MeCN  D2AN 1012   1.925   2.394   1.738
  203MeCN  C3AN 1013   1.980   2.387   1.923
  203MeCN  C4AN 1014   1.939   2.392   1.784
  203MeCN  N5AN 1015   1.906   2.396   1.671
  204MeCN  D1AN 1016   1.951   1.038   0.603
  204MeCN  D2AN 1017   2.051   1.230   0.453
  204MeCN  C3AN 1018   1.978   1.089   0.563
  204MeCN  C4AN 1019   2.033   1.195   0.480
  204MeCN  N5AN 1020   2.077   1.281   0.413
  205MeCN  D1AN 1021   0.416   0.355   1.537
  205MeCN  D2AN 1022   0.479   0.486   1.317
  205MeCN  C3AN 1023   0.433   0.390   1.479
  205MeCN  C4AN 1024   0.468   0.462   1.357
  205MeCN  N5AN 1025   0.496   0.520   1.259
  206MeCN  D1AN 1026   2.225   1.363   2.033
  206MeCN  D2AN 1027   2.102   1.459   2.245
  206MeCN  C3AN 1028   2.192   1.389   2.089
  206MeCN  C4AN 1029   2.124   1.442   2.207
  206MeCN  N5AN 1030   2.070   1.484   2.302
  207MeCN  D1AN 1031   1.441   1.026   2.342
  207MeCN  D2AN 1032   1.356   1.187   2.153
  207MeCN  C3AN 1033   1.419   1.069   2.292
  207MeCN  C4AN 1034   1.371   1.158   2.187
  207MeCN  N5AN 1035   1.333   1.230   2.103
  208MeCN  D1AN 1036   2.029   1.569   0.230
  208MeCN  D2AN 1037   2.277   1.557   0.142
  208MeCN  C3AN 1038   2.095   1.566   0.206
  208MeCN  C4AN 1039   2.233   1.559   0.158
  208MeCN  N5AN 1040   2.343   1.553   0.118
  209MeCN  D1AN 1041   0.037   2.598   0.818
  209MeCN  D2AN 1042   0.052   2.475   1.051
  209MeCN  C3AN 1043   0.041   2.565   0.880
  209MeCN  C4AN 1044   0.049   2.497   1.009
  209MeCN  N5AN 1045   0.055   2.443   1.112
  210MeCN  D1AN 1046   1.340   1.688   0.775
  210MeCN  D2AN 1047   1.596   1.649   0.819
  210MeCN  C3AN 1048   1.408   1.677   0.786
  210MeCN  C4AN 1049   1.550   1.656   0.811
  210MeCN  N5AN 1050   1.664   1.638   0.831
  211MeCN  D1AN 1051   1.506   1.639   1.798
  211MeCN  D2AN 1052   1.498   1.901   1.819
  211MeCN  C3AN 1053   1.504   1.708   1.804
  211MeCN  C4AN 1054   1.499   1.854   1.815
  211MeCN  N5AN 1055   1.495   1.970   1.824
  212MeCN  D1AN 1056   1.878   2.823   1.070
  212MeCN  D2AN 1057   1.950   2.582   0.991
  212MeCN  C3AN 1058   1.897   2.759   1.049
  212MeCN  C4AN 1059   1.937   2.626   1.005
  212MeCN  N5AN 1060   1.969   2.519   0.970
  213MeCN  D1AN 1061   2.616   2.290   1.986
  213MeCN  D2AN 1062   2.377   2.273   1.878
  213MeCN  C3AN 1063   2.553   2.286   1.957
  213MeCN  C4AN 1064   2.420   2.276   1.898
  213MeCN  N5AN 1065   2.313   2.269   1.850
  214MeCN  D1AN 1066   2.553   1.520   2.724
  214MeCN  D2AN 1067   2.723   1.565   2.920
  214MeCN  C3AN 1068   2.598   1.532   2.776
  214MeCN  C4AN 1069   2.693   1.557   2.885
  214MeCN  N5AN 1070   2.769   1.576   2.972
  215MeCN  D1AN 1071   1.898   2.739   1.518
  215MeCN  D2AN 1072   2.125   2.647   1.422
  215MeCN  C3AN 1073   1.958   2.715   1.493
  215MeCN  C4AN 1074   2.084   2.663   1.439
  215MeCN  N5AN 1075   2.185   2.622   1.396
  216MeCN  D1AN 1076   1.849   1.019   1.330
  216MeCN  D2AN 1077   1.685   0.828   1.252
  216MeCN  C3AN 1078   1.806   0.968   1.309
  216MeCN  C4AN 1079   1.715   0.863   1.266
  216MeCN  N5AN 1080   1.642   0.778   1.231
  217MeCN  D1AN 1081   0.681   0.570   0.449
  217MeCN  D2AN 1082   0.841   0.760   0.362
  217MeCN  C3AN 1083   0.723   0.621   0.426
  217MeCN  C4AN 1084   0.812   0.726   0.378
  217MeCN  N5AN 1085   0.883   0.811   0.339
  218MeCN  D1AN 1086   1.989   2.562   0.595
  218MeCN  D2AN 1087   1.812   2.379   0.658
  218MeCN  C3AN 1088   1.942   2.514   0.612
  218MeCN  C4AN 1089   1.844   2.412   0.647
  218MeCN  N5AN 1090   1.765   2.330   0.675
  219MeCN  D1AN 1091   1.012   0.723   1.717
  219MeCN  D2AN 1092   1.239   0.594   1.694
  219MeCN  C3AN 1093   1.072   0.689   1.711
  219MeCN  C4AN 1094   1.199   0.617   1.698
  219MeCN  N5AN 1095   1.300   0.559   1.687
  220MeCN  D1AN 1096   2.740   0.213   0.048
  220MeCN  D2AN 1097   2.532   0.275   0.197
  220MeCN  C3AN 1098   2.685   0.230   0.087
  220MeCN  C4AN 1099   2.570   0.264   0.170
  220MeCN  N5AN 1100   2.477   0.291   0.237
  221MeCN  D1AN 1101   2.398   2.166   2.623
  221MeCN  D2AN 1102   2.520   2.026   2.438
  221MeCN  C3AN 1103   2.430   2.129   2.574
  221MeCN  C4AN 1104   2.498   2.051   2.471
  221MeCN  N5AN 1105   2.552   1.988   2.388
  222MeCN  D1AN 1106   2.589   2.241   0.737
  222MeCN  D2AN 1107   2.633   2.441   0.902
  222MeCN  C3AN 1108   2.600   2.294   0.781
  222MeCN  C4AN 1109   2.625   2.405   0.873
  222MeCN  N5AN 1110   2.645   2.493   0.946
  223MeCN  D1AN 1111   0.829   0.714   1.949
  223MeCN  D2AN 1112   0.616   0.863   1.907
  223MeCN  C3AN 1113   0.772   0.753   1.938
  223MeCN  C4AN 1114   0.654   0.836   1.914
  223MeCN  N5AN 1115   0.560   0.902   1.895
  224MeCN  D1AN 1116   1.158   0.410   0.971
  224MeCN  D2AN 1117   1.198   0.670   0.972
  224MeCN  C3AN 1118   1.169   0.479   0.971
  224MeCN  C4AN 1119   1.191   0.623   0.972
  224MeCN  N5AN 1120   1.208   0.739   0.972
  225MeCN  D1AN 1121   1.357   2.430   2.044
  225MeCN  D2AN 1122   1.228   2.277   1.873
  225MeCN  C3AN 1123   1.323   2.390   1.999
  225MeCN  C4AN 1124   1.251   2.305   1.904
  225MeCN  N5AN 1125   1.194   2.236   1.828
  226MeCN  D1AN 1126   1.854   0.385   1.245
  226MeCN  D2AN 1127   2.035   0.300   1.073
  226MeCN  C3AN 1128   1.902   0.362   1.199
  226MeCN  C4AN 1129   2.002   0.315   1.104
  226MeCN  N5AN 1130   2.082   0.277   1.028
  227MeCN  D1AN 1131   1.184   0.862   0.610
  227MeCN  D2AN 1132   1.116   0.610   0.583
  227MeCN  C3AN 1133   1.166   0.795   0.603
  227MeCN  C4AN 1134   1.128   0.655   0.588
  227MeCN  N5AN 1135   1.097   0.543   0.576
  228MeCN  D1AN 1136   2.041   2.136   2.449
  228MeCN  D2AN 1137   2.040   2.373   2.335
  228MeCN  C3AN 1138   2.041   2.199   2.419
  228MeCN  C4AN 1139   2.040   2.331   2.355
  228MeCN  N5AN 1140   2.039   2.436   2.305
  229MeCN  D1AN 1141   1.746   1.357   0.941
  229MeCN  D2AN 1142   1.813   1.328   1.193
  229MeCN  C3AN 1143   1.764   1.349   1.008
  229MeCN  C4AN 1144   1.801   1.333   1.148
  229MeCN  N5AN 1145   1.831   1.321   1.260
  230MeCN  D1AN 1146   0.142   2.658   0.466
  230MeCN  D2AN 1147   0.241   2.887   0.382
  230MeCN  C3AN 1148   0.168   2.719   0.444
  230MeCN  C4AN 1149   0.223   2.846   0.397
  230MeCN  N5AN 1150   0.267   2.948   0.360
  231MeCN  D1AN 1151   1.377   0.133   0.299
  231MeCN  D2AN 1152   1.583   0.015   0.185
  231MeCN  C3AN 1153   1.431   0.101   0.269
  231MeCN  C4AN 1154   1.546   0.036   0.206
  231MeCN  N5AN 1155   1.637   3.004   0.155
  232MeCN  D1AN 1156   2.847   1.231   0.047
  232MeCN  D2AN 1157   2.662   1.159   2.895
  232MeCN  C3AN 1158   2.798   1.212   0.002
  232MeCN  C4AN 1159   2.695   1.172   2.926
  232MeCN  N5AN 1160   2.612   1.139   2.850
  233MeCN  D1AN 1161   0.365   0.951   2.613
  233MeCN  D2AN 1162   0.388   1.208   2.663
  233MeCN  C3AN 1163   0.371   1.019   2.626
  233MeCN  C4AN 1164   0.384   1.162   2.654
  233MeCN  N5AN 1165   0.394   1.276   2.676
  234MeCN  D1AN 1166   1.872   0.370   0.726
  234MeCN  D2AN 1167   2.071   0.541   0.744
  234MeCN  C3AN 1168   1.925   0.415   0.730
  234MeCN  C4AN 1169   2.035   0.511   0.740
  234MeCN  N5AN 1170   2.124   0.587   0.749
  235MeCN  D1AN 1171   0.648   1.410   0.320
  235MeCN  D2AN 1172   0.385   1.429   0.322
  235MeCN  C3AN 1173   0.578   1.415   0.320
  235MeCN  C4AN 1174   0.433   1.425   0.322
  235MeCN  N5AN 1175   0.316   1.433   0.323
  236MeCN  D1AN 1176   1.238   2.729   0.804
  236MeCN  D2AN 1177   1.040   2.583   0.897
  236MeCN  C3AN 1178   1.186   2.690   0.829
  236MeCN  C4AN 1179   1.076   2.609   0.880
  236MeCN  N5AN 1180   0.987   2.544   0.921
  237MeCN  D1AN 1181   0.403   1.413   2.332
  237MeCN  D2AN 1182   0.649   1.394   2.424
  237MeCN  C3AN 1183   0.468   1.408   2.356
  237MeCN  C4AN 1184   0.604   1.397   2.407
  237MeCN  N5AN 1185   0.714   1.389   2.448
  238MeCN  D1AN 1186   1.922   0.923   1.840
  238MeCN  D2AN 1187   1.735   0.965   2.019
  238MeCN  C3AN 1188   1.872   0.934   1.887
  238MeCN  C4AN 1189   1.768   0.958   1.987
  238MeCN  N5AN 1190   1.685   0.977   2.067
  239MeCN  D1AN 1191   1.587   2.271   1.723
  239MeCN  D2AN 1192   1.463   2.346   1.504
  239MeCN  C3AN 1193   1.554   2.291   1.665
  239MeCN  C4AN 1194   1.485   2.332   1.543
  239MeCN  N5AN 1195   1.430   2.366   1.446
  240MeCN  D1AN 1196   2.033   2.158   0.903
  240MeCN  D2AN 1197   2.210   2.311   0.783
  240MeCN  C3AN 1198   2.080   2.198   0.871
  240MeCN  C4AN 1199   2.178   2.283   0.804
  240MeCN  N5AN 1200   2.257   2.351   0.751
  241MeCN  D1AN 1201   0.196   0.530   2.577
  241MeCN  D2AN 1202   0.139   0.768   2.481
  241MeCN  C3AN 1203   0.181   0.593   2.552
  241MeCN  C4AN 1204   0.149   0.725   2.498
  241MeCN  N5AN 1205   0.124   0.831   2.455
  242MeCN  D1AN 1206   1.325   1.245   0.724
  242MeCN  D2AN 1207   1.579   1.213   0.667
  242MeCN  C3AN 1208   1.392   1.236   0.709
  242MeCN  C4AN 1209   1.533   1.219   0.677
  242MeCN  N5AN 1210   1.647   1.205   0.651
  243MeCN  D1AN 1211   0.288   1.435   1.591
  243MeCN  D2AN 1212   0.531   1.367   1.519
  243MeCN  C3AN 1213   0.352   1.417   1.572
  243MeCN  C4AN 1214   0.487   1.379   1.532
  243MeCN  N5AN 1215   0.596   1.349   1.500
  244MeCN  D1AN 1216   1.664   2.536   0.954
  244MeCN  D2AN 1217   1.441   2.429   0.864
  244MeCN  C3AN 1218   1.605   2.508   0.930
  244MeCN  C4AN 1219   1.481   2.448   0.880
  244MeCN  N5AN 1220   1.382   2.401   0.839
  245MeCN  D1AN 1221   1.793   2.031   1.804
  245MeCN  D2AN 1222   1.955   2.026   1.597
  245MeCN  C3AN 1223   1.836   2.030   1.749
  245MeCN  C4AN 1224   1.926   2.027   1.635
  245MeCN  N5AN 1225   1.998   2.025   1.542
  246MeCN  D1AN 1226   1.149   0.206   0.545
  246MeCN  D2AN 1227   1.076   0.160   0.794
  246MeCN  C3AN 1228   1.130   0.194   0.611
  246MeCN  C4AN 1229   1.089   0.168   0.749
  246MeCN  N5AN 1230   1.057   0.148   0.859
  247MeCN  D1AN 1231   1.088   2.773   2.822
  247MeCN  D2AN 1232   1.216   2.874   0.008
  247MeCN  C3AN 1233   1.122   2.800   2.876
  247MeCN  C4AN 1234   1.193   2.856   2.991
  247MeCN  N5AN 1235   1.249   2.901   0.063
  248MeCN  D1AN 1236   0.311   1.643   0.947
  248MeCN  D2AN 1237   0.108   1.770   0.838
  248MeCN  C3AN 1238   0.257   1.676   0.918
  248MeCN  C4AN 1239   0.144   1.747   0.857
  248MeCN  N5AN 1240   0.054   1.803   0.809
  249MeCN  D1AN 1241   2.573   0.864   2.991
  249MeCN  D2AN 1242   2.637   0.610   2.975
  249MeCN  C3AN 1243   2.590   0.797   2.986
  249MeCN  C4AN 1244   2.626   0.656   2.977
  249MeCN  N5AN 1245   2.655   0.542   2.970
  250MeCN  D1AN 1246   2.448   0.764   0.779
  250MeCN  D2AN 1247   2.511   0.758   0.524
  250MeCN  C3AN 1248   2.465   0.762   0.711
  250MeCN  C4AN 1249   2.499   0.759   0.569
  250MeCN  N5AN 1250   2.527   0.756   0.456
  251MeCN  D1AN 1251   0.738   2.071   2.827
  251MeCN  D2AN 1252   0.720   2.329   2.872
  251MeCN  C3AN 1253   0.733   2.139   2.839
  251MeCN  C4AN 1254   0.723   2.283   2.864
  251MeCN  N5AN 1255   0.716   2.398   2.884
  252MeCN  D1AN 1256   1.284   1.949   2.085
  252MeCN  D2AN 1257   1.024   1.988   2.069
  252MeCN  C3AN 1258   1.215   1.960   2.081
  252MeCN  C4AN 1259   1.071   1.981   2.072
  252MeCN  N5AN 1260   0.955   1.999   2.064
  253MeCN  D1AN 1261   0.413   0.469   0.953
  253MeCN  D2AN 1262   0.529   0.233   0.937
  253MeCN  C3AN 1263   0.444   0.406   0.949
  253MeCN  C4AN 1264   0.508   0.276   0.940
  253MeCN  N5AN 1265   0.560   0.171   0.933
  254MeCN  D1AN 1266   1.642   0.878   0.840
  254MeCN  D2AN 1267   1.859   0.998   0.927
  254MeCN  C3AN 1268   1.699   0.910   0.863
  254MeCN  C4AN 1269   1.820   0.976   0.911
  254MeCN  N5AN 1270   1.917   1.029   0.950
  255MeCN  D1AN 1271   1.985   1.775   0.782
  255MeCN  D2AN 1272   2.018   1.636   1.004
  255MeCN  C3AN 1273   1.994   1.738   0.841
  255MeCN  C4AN 1274   2.012   1.661   0.964
  255MeCN  N5AN 1275   2.027   1.600   1.063
  256MeCN  D1AN 1276   0.153   0.235   0.344
  256MeCN  D2AN 1277   2.921   0.166   0.375
  256MeCN  C3AN 1278   0.086   0.217   0.353
  256MeCN  C4AN 1279   2.966   0.179   0.370
  256MeCN  N5AN 1280   2.854   0.148   0.384
  257MeCN  D1AN 1281   1.809   0.649   0.269
  257MeCN  D2AN 1282   1.760   0.688   0.524
  257MeCN  C3AN 1283   1.796   0.659   0.337
  257MeCN  C4AN 1284   1.769   0.681   0.478
  257MeCN  N5AN 1285   1.747   0.698   0.592
  258MeCN  D1AN 1286   2.859   1.779   2.530
  258MeCN  D2AN 1287   2.746   1.918   2.723
  258MeCN  C3AN 1288   2.829   1.816   2.581
  258MeCN  C4AN 1289   2.766   1.893   2.688
  258MeCN  N5AN 1290   2.716   1.954   2.774
  259MeCN  D1AN 1291   2.973   2.475   1.827
  259MeCN  D2AN 1292   0.192   2.399   1.748
  259MeCN  C3AN 1293   0.017   2.455   1.806
  259MeCN  C4AN 1294   0.149   2.412   1.762
  259MeCN  N5AN 1295   0.256   2.378   1.727
  260MeCN  D1AN 1296   0.502   0.089   0.325
  260MeCN  D2AN 1297   0.718   0.156   0.458
  260MeCN  C3AN 1298   0.559   0.107   0.360
  260MeCN  C4AN 1299   0.679   0.144   0.434
  260MeCN  N5AN 1300   0.776   0.174   0.493
  261MeCN  D1AN 1301   2.881   1.941   0.066
  261MeCN  D2AN 1302   0.020   2.145   0.021
  261MeCN  C3AN 1303   2.923   1.995   0.054
  261MeCN  C4AN 1304   3.012   2.108   0.029
  261MeCN  N5AN 1305   0.063   2.199   0.009
  262MeCN  D1AN 1306   2.919   0.901   2.216
  262MeCN  D2AN 1307   2.709   0.911   2.375
  262MeCN  C3AN 1308   2.863   0.904   2.258
  262MeCN  C4AN 1309   2.747   0.909   2.346
  262MeCN  N5AN 1310   2.653   0.914   2.417
  263MeCN  D1AN 1311   2.298   1.722   2.373
  263MeCN  D2AN 1312   2.541   1.628   2.405
  263MeCN  C3AN 1313   2.363   1.697   2.382
  263MeCN  C4AN 1314   2.498   1.645   2.400
  263MeCN  N5AN 1315   2.606   1.603   2.414
  264MeCN  D1AN 1316   2.887   1.187   1.700
  264MeCN  D2AN 1317   2.896   1.391   1.534
  264MeCN  C3AN 1318   2.889   1.241   1.656
  264MeCN  C4AN 1319   2.894   1.354   1.564
  264MeCN  N5AN 1320   2.899   1.445   1.490
  265MeCN  D1AN 1321   0.671   2.879   2.302
  265MeCN  D2AN 1322   0.469   2.716   2.343
  265MeCN  C3AN 1323   0.618   2.836   2.313
  265MeCN  C4AN 1324   0.506   2.745   2.336
  265MeCN  N5AN 1325   0.416   2.673   2.354
  266MeCN  D1AN 1326   1.695   1.692   0.025
  266MeCN  D2AN 1327   1.770   1.815   0.245
  266MeCN  C3AN 1328   1.715   1.725   0.083
  266MeCN  C4AN 1329   1.757   1.793   0.205
  266MeCN  N5AN 1330   1.790   1.848   0.303
  267MeCN  D1AN 1331   2.959   2.446   0.491
  267MeCN  D2AN 1332   2.699   2.480   0.471
  267MeCN  C3AN 1333   2.890   2.455   0.486
  267MeCN  C4AN 1334   2.745   2.474   0.475
  267MeCN  N5AN 1335   2.630   2.488   0.466
  268MeCN  D1AN 1336   2.225   2.621   1.705
  268MeCN  D2AN 1337   2.368   2.641   1.925
  268MeCN  C3AN 1338   2.263   2.626   1.763
  268MeCN  C4AN 1339   2.343   2.637   1.885
  268MeCN  N5AN 1340   2.407   2.646   1.983
  269MeCN  D1AN 1341   0.378   1.240   0.657
  269MeCN  D2AN 1342   0.506   1.455   0.739
  269MeCN  C3AN 1343   0.412   1.297   0.679
  269MeCN  C4AN 1344   0.483   1.416   0.724
  269MeCN  N5AN 1345   0.540   1.512   0.760
  270MeCN  D1AN 1346   0.215   2.089   2.007
  270MeCN  D2AN 1347   2.977   2.138   1.993
  270MeCN  C3AN 1348   0.147   2.102   2.004
  270MeCN  C4AN 1349   0.004   2.129   1.996
  270MeCN  N5AN 1350   2.909   2.151   1.990
  271MeCN  D1AN 1351   0.727   2.116   1.311
  271MeCN  D2AN 1352   0.910   1.931   1.351
  271MeCN  C3AN 1353   0.776   2.067   1.322
  271MeCN  C4AN 1354   0.877   1.965   1.344
  271MeCN  N5AN 1355   0.959   1.882   1.361
  272MeCN  D1AN 1356   2.396   1.417   0.593
  272MeCN  D2AN 1357   2.217   1.607   0.558
  272MeCN  C3AN 1358   2.349   1.468   0.584
  272MeCN  C4AN 1359   2.249   1.573   0.565
  272MeCN  N5AN 1360   2.170   1.657   0.549
  273MeCN  D1AN 1361   1.525   2.649   0.100
  273MeCN  D2AN 1362   1.440   2.563   2.887
  273MeCN  C3AN 1363   1.502   2.626   0.038
  273MeCN  C4AN 1364   1.455   2.578   2.929
  273MeCN  N5AN 1365   1.417   2.540   2.825
  274MeCN  D1AN 1366   1.784   0.246   2.714
  274MeCN  D2AN 1367   1.797   0.399   2.501
  274MeCN  C3AN 1368   1.788   0.287   2.657
  274MeCN  C4AN 1369   1.794   0.372   2.539
  274MeCN  N5AN 1370   1.800   0.440   2.444
  275MeCN  D1AN 1371   1.455   0.716   1.927
  275MeCN  D2AN 1372   1.465   0.702   2.189
  275MeCN  C3AN 1373   1.458   0.712   1.997
  275MeCN  C4AN 1374   1.463   0.704   2.142
  275MeCN  N5AN 1375   1.467   0.698   2.259
  276MeCN  D1AN 1376   1.072   2.975   1.084
  276MeCN  D2AN 1377   1.095   2.784   1.263
  276MeCN  C3AN 1378   1.078   2.924   1.131
  276MeCN  C4AN 1379   1.091   2.818   1.230
  276MeCN  N5AN 1380   1.101   2.733   1.310
  277MeCN  D1AN 1381   1.469   0.041   0.777
  277MeCN  D2AN 1382   1.667   0.163   0.900
  277MeCN  C3AN 1383   1.521   0.073   0.809
  277MeCN  C4AN 1384   1.631   0.141   0.878
  277MeCN  N5AN 1385   1.719   0.195   0.933
  278MeCN  D1AN 1386   2.164   2.978   0.867
  278MeCN  D2AN 1387   2.190   0.141   0.679
  278MeCN  C3AN 1388   2.171   0.007   0.817
  278MeCN  C4AN 1389   2.186   0.108   0.713
  278MeCN  N5AN 1390   2.197   0.189   0.629
  279MeCN  D1AN 1391   0.666   1.808   0.705
  279MeCN  D2AN 1392   0.730   1.865   0.954
  279MeCN  C3AN 1393   0.683   1.824   0.771
  279MeCN  C4AN 1394   0.718   1.855   0.909
  279MeCN  N5AN 1395   0.747   1.880   1.020
  280MeCN  D1AN 1396   1.595   0.702   1.582
  280MeCN  D2AN 1397   1.652   0.455   1.512
  280MeCN  C3AN 1398   1.610   0.636   1.564
  280MeCN  C4AN 1399   1.642   0.499   1.525
  280MeCN  N5AN 1400   1.667   0.389   1.494
  281MeCN  D1AN 1401   0.150   2.632   1.361
  281MeCN  D2AN 1402   0.188   2.735   1.600
  281MeCN  C3AN 1403   0.160   2.659   1.424
  281MeCN  C4AN 1404   0.181   2.717   1.557
  281MeCN  N5AN 1405   0.198   2.763   1.663
  282MeCN  D1AN 1406   1.358   2.868   2.003
  282MeCN  D2AN 1407   1.365   2.697   2.203
  282MeCN  C3AN 1408   1.360   2.823   2.056
  282MeCN  C4AN 1409   1.364   2.728   2.167
  282MeCN  N5AN 1410   1.367   2.652   2.256
  283MeCN  D1AN 1411   1.917   1.247   0.045
  283MeCN  D2AN 1412   1.862   1.036   0.192
  283MeCN  C3AN 1413   1.902   1.191   0.084
  283MeCN  C4AN 1414   1.872   1.074   0.166
  283MeCN  N5AN 1415   1.848   0.981   0.232
  284MeCN  D1AN 1416   2.847   1.559   0.916
  284MeCN  D2AN 1417   2.715   1.590   0.690
  284MeCN  C3AN 1418   2.812   1.567   0.856
  284MeCN  C4AN 1419   2.739   1.584   0.731
  284MeCN  N5AN 1420   2.680   1.598   0.630
  285MeCN  D1AN 1421   0.200   1.190   2.119
  285MeCN  D2AN 1422   0.154   1.336   1.906
  285MeCN  C3AN 1423   0.188   1.228   2.063
  285MeCN  C4AN 1424   0.162   1.310   1.944
  285MeCN  N5AN 1425   0.142   1.375   1.849
  286MeCN  D1AN 1426   2.751   2.237   2.280
  286MeCN  D2AN 1427   2.961   2.135   2.400
  286MeCN  C3AN 1428   2.807   2.210   2.312
  286MeCN  C4AN 1429   2.923   2.153   2.378
  286MeCN  N5AN 1430   3.017   2.107   2.432
  287MeCN  D1AN 1431   0.602   2.036   0.513
  287MeCN  D2AN 1432   0.684   2.241   0.371
  287MeCN  C3AN 1433   0.624   2.090   0.475
  287MeCN  C4AN 1434   0.670   2.205   0.397
  287MeCN  N5AN 1435   0.706   2.296   0.334
  288MeCN  D1AN 1436   0.213   1.779   0.502
  288MeCN  D2AN 1437   0.471   1.756   0.459
  288MeCN  C3AN 1438   0.281   1.773   0.491
  288MeCN  C4AN 1439   0.425   1.760   0.467
  288MeCN  N5AN 1440   0.540   1.750   0.447
  289MeCN  D1AN 1441   0.412   2.287   0.018
  289MeCN  D2AN 1442   0.384   2.081   0.179
  289MeCN  C3AN 1443   0.404   2.233   0.061
  289MeCN  C4AN 1444   0.389   2.118   0.151
  289MeCN  N5AN 1445   0.376   2.027   0.222
  290MeCN  D1AN 1446   0.614   1.828   0.115
  290MeCN  D2AN 1447   0.492   1.618   0.015
  290MeCN  C3AN 1448   0.582   1.772   0.088
  290MeCN  C4AN 1449   0.514   1.655   0.033
  290MeCN  N5AN 1450   0.459   1.562   3.008
  291MeCN  D1AN 1451   2.637   0.870   1.087
  291MeCN  D2AN 1452   2.742   0.990   1.296
  291MeCN  C3AN 1453   2.665   0.902   1.143
  291MeCN  C4AN 1454   2.723   0.968   1.259
  291MeCN  N5AN 1455   2.770   1.022   1.352
  292MeCN  D1AN 1456   1.033   1.915   2.904
  292MeCN  D2AN 1457   0.887   1.697   2.887
  292MeCN  C3AN 1458   0.994   1.857   2.899
  292MeCN  C4AN 1459   0.913   1.736   2.890
  292MeCN  N5AN 1460   0.849   1.639   2.883
  293MeCN  D1AN 1461   0.801   2.521   0.596
  293MeCN  D2AN 1462   1.035   2.429   0.521
  293MeCN  C3AN 1463   0.863   2.496   0.576
  293MeCN  C4AN 1464   0.993   2.445   0.535
  293MeCN  N5AN 1465   1.098   2.404   0.502
  294MeCN  D1AN 1466   0.811   0.064   2.537
  294MeCN  D2AN 1467   0.963   0.097   2.749
  294MeCN  C3AN 1468   0.851   0.073   2.593
  294MeCN  C4AN 1469   0.935   0.091   2.711
  294MeCN  N5AN 1470   1.003   0.106   2.805
  295MeCN  D1AN 1471   2.204   0.836   0.975
  295MeCN  D2AN 1472   2.077   0.715   1.170
  295MeCN  C3AN 1473   2.171   0.804   1.027
  295MeCN  C4AN 1474   2.100   0.736   1.135
  295MeCN  N5AN 1475   2.043   0.682   1.222
  296MeCN  D1AN 1476   2.720   0.544   0.283
  296MeCN  D2AN 1477   2.949   0.616   0.391
  296MeCN  C3AN 1478   2.781   0.563   0.311
  296MeCN  C4AN 1479   2.908   0.603   0.371
  296MeCN  N5AN 1480   3.010   0.634   0.419
  297MeCN  D1AN 1481   0.189   2.715   2.082
  297MeCN  D2AN 1482   0.158   2.957   2.181
  297MeCN  C3AN 1483   0.181   2.779   2.108
  297MeCN  C4AN 1484   0.163   2.913   2.164
  297MeCN  N5AN 1485   0.150   0.001   2.208
  298MeCN  D1AN 1486   2.965   0.493   2.794
  298MeCN  D2AN 1487   3.017   0.432   0.024
  298MeCN  C3AN 1488   2.979   0.477   2.860
  298MeCN  C4AN 1489   3.008   0.443   2.999
  298MeCN  N5AN 1490   0.011   0.415   0.091
  299MeCN  D1AN 1491   0.842   1.466   0.834
  299MeCN  D2AN 1492   1.023   1.276   0.850
  299MeCN  C3AN 1493   0.890   1.416   0.838
  299MeCN  C4AN 1494   0.991   1.310   0.847
  299MeCN  N5AN 1495   1.071   1.226   0.854
  300MeCN  D1AN 1496   0.420   2.213   1.018
  300MeCN  D2AN 1497   0.393   2.057   0.808
  300MeCN  C3AN 1498   0.413   2.172   0.963
  300MeCN  C4AN 1499   0.398   2.085   0.846
  300MeCN  N5AN 1500   0.386   2.015   0.753
   3.01984   3.01984   3.01984
