DMSO system in water
 1000
    1DMSO    SD    1   2.536   2.450   1.914
    1DMSO   CD1    2   2.499   2.616   1.947
    1DMSO    OD    3   2.630   2.406   2.018
    1DMSO   CD2    4   2.381   2.384   1.956
    2DMSO    SD    5   1.794   1.638   1.971
    2DMSO   CD1    6   1.746   1.632   2.143
    2DMSO    OD    7   1.705   1.540   1.898
    2DMSO   CD2    8   1.731   1.801   1.936
    3DMSO    SD    9   0.865   2.545   2.368
    3DMSO   CD1   10   0.863   2.413   2.233
    3DMSO    OD   11   1.003   2.527   2.447
    3DMSO   CD2   12   0.885   2.694   2.256
    4DMSO    SD   13   0.653   0.805   0.189
    4DMSO   CD1   14   0.654   0.766   0.006
    4DMSO    OD   15   0.569   0.938   0.207
    4DMSO   CD2   16   0.543   0.664   0.242
    5DMSO    SD   17   2.878   2.904   1.708
    5DMSO   CD1   18   2.741   2.910   1.791
    5DMSO    OD   19   2.844   2.917   1.576
    5DMSO   CD2   20   2.936   3.045   1.755
    6DMSO    SD   21   0.604   1.372   1.552
    6DMSO   CD1   22   0.700   1.244   1.640
    6DMSO    OD   23   0.696   1.497   1.538
    6DMSO   CD2   24   0.601   1.290   1.388
    7DMSO    SD   25   0.260   2.095   1.319
    7DMSO   CD1   26   0.102   2.055   1.390
    7DMSO    OD   27   0.295   2.233   1.368
    7DMSO   CD2   28   0.357   1.980   1.414
    8DMSO    SD   29   0.389   2.399   3.007
    8DMSO   CD1   30   0.350   2.290   2.862
    8DMSO    OD   31   0.461   2.528   2.949
    8DMSO   CD2   32   0.215   2.449   3.047
    9DMSO    SD   33   1.076   1.477   0.115
    9DMSO   CD1   34   1.104   1.510   3.019
    9DMSO    OD   35   1.092   1.325   0.135
    9DMSO   CD2   36   1.227   1.555   0.178
   10DMSO    SD   37   2.421   1.269   2.493
   10DMSO   CD1   38   2.344   1.256   2.634
   10DMSO    OD   39   2.437   1.402   2.469
   10DMSO   CD2   40   2.564   1.214   2.543
   11DMSO    SD   41   2.784   2.000   0.436
   11DMSO   CD1   42   2.971   1.947   0.410
   11DMSO    OD   43   2.784   2.118   0.553
   11DMSO   CD2   44   2.760   2.092   0.265
   12DMSO    SD   45   3.012   1.032   1.653
   12DMSO   CD1   46   3.038   1.078   1.828
   12DMSO    OD   47   3.024   0.877   1.644
   12DMSO   CD2   48   2.833   1.072   1.644
   13DMSO    SD   49   2.802   3.016   2.825
   13DMSO   CD1   50   2.926   2.894   2.765
   13DMSO    OD   51   2.784   2.990   2.978
   13DMSO   CD2   52   2.907   0.086   2.809
   14DMSO    SD   53   2.505   0.800   0.842
   14DMSO   CD1   54   2.447   0.663   0.756
   14DMSO    OD   55   2.464   0.917   0.765
   14DMSO   CD2   56   2.398   0.789   0.975
   15DMSO    SD   57   0.162   1.145   0.014
   15DMSO   CD1   58   0.292   1.131   0.124
   15DMSO    OD   59   0.191   1.259   3.009
   15DMSO   CD2   60   0.196   1.006   3.002
   16DMSO    SD   61   2.107   2.667   1.916
   16DMSO   CD1   62   2.003   2.641   2.059
   16DMSO    OD   63   2.106   2.538   1.836
   16DMSO   CD2   64   2.001   2.782   1.831
   17DMSO    SD   65   1.476   1.497   1.356
   17DMSO   CD1   66   1.556   1.437   1.235
   17DMSO    OD   67   1.387   1.404   1.394
   17DMSO   CD2   68   1.593   1.493   1.462
   18DMSO    SD   69   2.385   3.040   2.102
   18DMSO   CD1   70   2.225   3.041   2.211
   18DMSO    OD   71   2.462   2.898   2.133
   18DMSO   CD2   72   2.298   3.020   1.930
   19DMSO    SD   73   1.016   2.548   1.088
   19DMSO   CD1   74   0.925   2.422   0.963
   19DMSO    OD   75   1.121   2.455   1.184
   19DMSO   CD2   76   1.130   2.641   0.952
   20DMSO    SD   77   1.046   0.289   0.589
   20DMSO   CD1   78   1.011   0.110   0.548
   20DMSO    OD   79   1.001   0.375   0.462
   20DMSO   CD2   80   0.912   0.311   0.719
   21DMSO    SD   81   2.670   1.692   2.408
   21DMSO   CD1   82   2.818   1.674   2.520
   21DMSO    OD   83   2.704   1.808   2.307
   21DMSO   CD2   84   2.692   1.532   2.316
   22DMSO    SD   85   1.250   0.785   0.491
   22DMSO   CD1   86   1.227   0.788   0.323
   22DMSO    OD   87   1.270   0.922   0.533
   22DMSO   CD2   88   1.092   0.744   0.535
   23DMSO    SD   89   0.516   2.475   1.199
   23DMSO   CD1   90   0.391   2.563   1.121
   23DMSO    OD   91   0.637   2.494   1.119
   23DMSO   CD2   92   0.532   2.578   1.337
   24DMSO    SD   93   2.672   0.307   1.923
   24DMSO   CD1   94   2.829   0.390   1.967
   24DMSO    OD   95   2.687   0.257   1.776
   24DMSO   CD2   96   2.693   0.160   2.031
   25DMSO    SD   97   2.449   0.348   2.244
   25DMSO   CD1   98   2.437   0.281   2.434
   25DMSO    OD   99   2.337   0.256   2.152
   25DMSO   CD2  100   2.364   0.528   2.275
   26DMSO    SD  101   2.237   1.390   1.825
   26DMSO   CD1  102   2.305   1.383   1.664
   26DMSO    OD  103   2.314   1.493   1.899
   26DMSO   CD2  104   2.085   1.463   1.781
   27DMSO    SD  105   2.609   3.073   0.267
   27DMSO   CD1  106   2.748   0.106   0.212
   27DMSO    OD  107   2.615   3.068   0.426
   27DMSO   CD2  108   2.467   0.107   0.222
   28DMSO    SD  109   1.663   2.386   2.623
   28DMSO   CD1  110   1.611   2.245   2.718
   28DMSO    OD  111   1.581   2.504   2.671
   28DMSO   CD2  112   1.824   2.404   2.695
   29DMSO    SD  113   0.422   2.614   2.440
   29DMSO   CD1  114   0.457   2.504   2.558
   29DMSO    OD  115   0.538   2.690   2.420
   29DMSO   CD2  116   0.412   2.507   2.314
   30DMSO    SD  117   0.465   2.561   0.709
   30DMSO   CD1  118   0.384   2.397   0.743
   30DMSO    OD  119   0.417   2.661   0.822
   30DMSO   CD2  120   0.640   2.511   0.752
   31DMSO    SD  121   1.261   0.419   0.890
   31DMSO   CD1  122   1.285   0.466   1.060
   31DMSO    OD  123   1.257   0.547   0.809
   31DMSO   CD2  124   1.422   0.346   0.864
   32DMSO    SD  125   2.536   0.272   2.816
   32DMSO   CD1  126   2.542   0.160   2.958
   32DMSO    OD  127   2.566   0.187   2.691
   32DMSO   CD2  128   2.357   0.303   2.817
   33DMSO    SD  129   2.645   2.546   0.501
   33DMSO   CD1  130   2.607   2.714   0.422
   33DMSO    OD  131   2.506   2.492   0.562
   33DMSO   CD2  132   2.675   2.450   0.341
   34DMSO    SD  133   2.040   0.975   1.729
   34DMSO   CD1  134   2.115   0.806   1.712
   34DMSO    OD  135   2.157   1.073   1.766
   34DMSO   CD2  136   2.003   1.002   1.549
   35DMSO    SD  137   1.343   1.291   2.175
   35DMSO   CD1  138   1.209   1.389   2.216
   35DMSO    OD  139   1.359   1.300   2.031
   35DMSO   CD2  140   1.464   1.388   2.245
   36DMSO    SD  141   2.546   1.626   2.796
   36DMSO   CD1  142   2.622   1.781   2.826
   36DMSO    OD  143   2.482   1.585   2.924
   36DMSO   CD2  144   2.417   1.684   2.692
   37DMSO    SD  145   1.301   2.418   0.554
   37DMSO   CD1  146   1.273   2.318   0.395
   37DMSO    OD  147   1.279   2.317   0.677
   37DMSO   CD2  148   1.489   2.440   0.535
   38DMSO    SD  149   2.532   2.148   0.781
   38DMSO   CD1  150   2.584   1.973   0.746
   38DMSO    OD  151   2.432   2.143   0.904
   38DMSO   CD2  152   2.695   2.210   0.847
   39DMSO    SD  153   0.300   3.003   0.498
   39DMSO   CD1  154   0.453   2.940   0.392
   39DMSO    OD  155   0.174   3.025   0.392
   39DMSO   CD2  156   0.265   2.835   0.593
   40DMSO    SD  157   1.846   0.138   2.162
   40DMSO   CD1  158   1.856   3.074   2.033
   40DMSO    OD  159   1.936   0.091   2.290
   40DMSO   CD2  160   1.951   0.266   2.064
   41DMSO    SD  161   2.450   1.783   1.842
   41DMSO   CD1  162   2.393   1.922   1.944
   41DMSO    OD  163   2.521   1.843   1.719
   41DMSO   CD2  164   2.580   1.723   1.953
   42DMSO    SD  165   1.093   3.031   2.509
   42DMSO   CD1  166   1.110   2.857   2.502
   42DMSO    OD  167   0.957   3.062   2.458
   42DMSO   CD2  168   1.086   3.046   2.683
   43DMSO    SD  169   1.825   0.310   0.772
   43DMSO   CD1  170   1.736   0.155   0.773
   43DMSO    OD  171   1.725   0.418   0.736
   43DMSO   CD2  172   1.853   0.321   0.948
   44DMSO    SD  173   2.626   2.599   2.764
   44DMSO   CD1  174   2.744   2.598   2.891
   44DMSO    OD  175   2.679   2.686   2.658
   44DMSO   CD2  176   2.649   2.435   2.710
   45DMSO    SD  177   1.398   1.908   1.175
   45DMSO   CD1  178   1.264   1.884   1.286
   45DMSO    OD  179   1.474   1.780   1.171
   45DMSO   CD2  180   1.304   1.917   1.028
   46DMSO    SD  181   1.932   2.899   2.557
   46DMSO   CD1  182   1.924   2.828   2.394
   46DMSO    OD  183   1.932   2.783   2.654
   46DMSO   CD2  184   2.098   2.959   2.548
   47DMSO    SD  185   2.062   1.281   1.245
   47DMSO   CD1  186   1.978   1.379   1.132
   47DMSO    OD  187   2.204   1.307   1.224
   47DMSO   CD2  188   2.017   1.366   1.387
   48DMSO    SD  189   0.879   1.064   0.389
   48DMSO   CD1  190   0.818   1.159   0.259
   48DMSO    OD  191   0.913   0.933   0.333
   48DMSO   CD2  192   1.027   1.149   0.410
   49DMSO    SD  193   3.036   0.668   0.876
   49DMSO   CD1  194   2.903   0.779   0.823
   49DMSO    OD  195   3.034   0.547   0.781
   49DMSO   CD2  196   0.095   0.773   0.825
   50DMSO    SD  197   1.622   0.743   0.877
   50DMSO   CD1  198   1.562   0.701   0.706
   50DMSO    OD  199   1.723   0.863   0.862
   50DMSO   CD2  200   1.462   0.814   0.942
   51DMSO    SD  201   1.367   0.926   2.393
   51DMSO   CD1  202   1.330   0.750   2.355
   51DMSO    OD  203   1.333   0.948   2.544
   51DMSO   CD2  204   1.551   0.915   2.382
   52DMSO    SD  205   1.549   0.139   1.153
   52DMSO   CD1  206   1.561   0.028   1.286
   52DMSO    OD  207   1.406   0.154   1.122
   52DMSO   CD2  208   1.597   0.282   1.239
   53DMSO    SD  209   2.178   1.832   3.025
   53DMSO   CD1  210   2.089   1.737   0.087
   53DMSO    OD  211   2.134   1.989   3.039
   53DMSO   CD2  212   2.357   1.818   0.014
   54DMSO    SD  213   2.794   2.124   2.426
   54DMSO   CD1  214   2.656   2.142   2.324
   54DMSO    OD  215   2.838   2.258   2.462
   54DMSO   CD2  216   2.712   2.059   2.563
   55DMSO    SD  217   2.640   1.254   1.904
   55DMSO   CD1  218   2.762   1.373   1.862
   55DMSO    OD  219   2.712   1.140   1.968
   55DMSO   CD2  220   2.564   1.344   2.033
   56DMSO    SD  221   0.313   1.990   0.160
   56DMSO   CD1  222   0.180   1.889   0.086
   56DMSO    OD  223   0.354   2.095   0.054
   56DMSO   CD2  224   0.210   2.077   0.284
   57DMSO    SD  225   1.193   1.473   0.927
   57DMSO   CD1  226   1.365   1.430   0.902
   57DMSO    OD  227   1.111   1.372   0.849
   57DMSO   CD2  228   1.182   1.426   1.099
   58DMSO    SD  229   2.433   2.712   0.025
   58DMSO   CD1  230   2.496   2.851   3.006
   58DMSO    OD  231   2.556   2.650   0.099
   58DMSO   CD2  232   2.341   2.810   0.149
   59DMSO    SD  233   2.741   2.943   0.823
   59DMSO   CD1  234   2.805   2.952   0.643
   59DMSO    OD  235   2.770   0.007   0.891
   59DMSO   CD2  236   2.554   2.938   0.783
   60DMSO    SD  237   2.924   0.893   2.113
   60DMSO   CD1  238   2.793   0.888   2.259
   60DMSO    OD  239   3.064   0.959   2.176
   60DMSO   CD2  240   2.953   0.699   2.099
   61DMSO    SD  241   0.816   0.522   1.927
   61DMSO   CD1  242   0.701   0.426   1.817
   61DMSO    OD  243   0.801   0.460   2.072
   61DMSO   CD2  244   0.975   0.456   1.857
   62DMSO    SD  245   0.696   1.171   0.912
   62DMSO   CD1  246   0.664   1.082   1.061
   62DMSO    OD  247   0.571   1.248   0.880
   62DMSO   CD2  248   0.812   1.286   0.979
   63DMSO    SD  249   2.962   2.719   0.171
   63DMSO   CD1  250   3.013   2.861   0.069
   63DMSO    OD  251   3.075   2.613   0.160
   63DMSO   CD2  252   2.982   2.799   0.334
   64DMSO    SD  253   1.774   1.259   2.746
   64DMSO   CD1  254   1.811   1.424   2.670
   64DMSO    OD  255   1.633   1.272   2.815
   64DMSO   CD2  256   1.748   1.165   2.589
   65DMSO    SD  257   2.416   1.864   1.421
   65DMSO   CD1  258   2.315   1.702   1.467
   65DMSO    OD  259   2.439   1.861   1.256
   65DMSO   CD2  260   2.273   1.993   1.455
   66DMSO    SD  261   2.097   1.304   0.037
   66DMSO   CD1  262   1.966   1.199   3.061
   66DMSO    OD  263   2.096   1.426   3.029
   66DMSO   CD2  264   2.024   1.352   0.191
   67DMSO    SD  265   0.725   3.041   0.006
   67DMSO   CD1  266   0.730   2.937   0.148
   67DMSO    OD  267   0.653   2.966   2.980
   67DMSO   CD2  268   0.613   0.080   0.070
   68DMSO    SD  269   1.111   2.253   2.554
   68DMSO   CD1  270   1.213   2.316   2.671
   68DMSO    OD  271   1.152   2.118   2.532
   68DMSO   CD2  272   0.973   2.245   2.649
   69DMSO    SD  273   1.756   0.646   1.564
   69DMSO   CD1  274   1.583   0.617   1.554
   69DMSO    OD  275   1.776   0.754   1.665
   69DMSO   CD2  276   1.799   0.494   1.643
   70DMSO    SD  277   0.877   0.429   0.039
   70DMSO   CD1  278   0.962   0.275   0.083
   70DMSO    OD  279   0.730   0.413   0.084
   70DMSO   CD2  280   0.957   0.536   0.162
   71DMSO    SD  281   0.201   0.002   2.694
   71DMSO   CD1  282   0.356   0.029   2.691
   71DMSO    OD  283   0.141   0.113   2.648
   71DMSO   CD2  284   0.197   2.977   2.576
   72DMSO    SD  285   0.943   2.620   1.792
   72DMSO   CD1  286   1.103   2.681   1.729
   72DMSO    OD  287   0.858   2.582   1.668
   72DMSO   CD2  288   1.005   2.463   1.863
   73DMSO    SD  289   3.001   1.278   2.409
   73DMSO   CD1  290   2.933   1.245   2.266
   73DMSO    OD  291   2.910   1.351   2.481
   73DMSO   CD2  292   2.999   1.127   2.468
   74DMSO    SD  293   0.499   1.499   1.111
   74DMSO   CD1  294   0.463   1.657   1.204
   74DMSO    OD  295   0.392   1.392   1.159
   74DMSO   CD2  296   0.444   1.557   0.941
   75DMSO    SD  297   2.401   1.037   2.181
   75DMSO   CD1  298   2.361   1.019   1.984
   75DMSO    OD  299   2.250   1.058   2.261
   75DMSO   CD2  300   2.458   0.845   2.214
   76DMSO    SD  301   1.777   2.608   1.577
   76DMSO   CD1  302   1.717   2.669   1.430
   76DMSO    OD  303   1.694   2.494   1.611
   76DMSO   CD2  304   1.923   2.545   1.517
   77DMSO    SD  305   1.676   2.125   0.393
   77DMSO   CD1  306   1.774   1.987   0.359
   77DMSO    OD  307   1.570   2.128   0.291
   77DMSO   CD2  308   1.604   2.067   0.539
   78DMSO    SD  309   1.321   0.812   1.326
   78DMSO   CD1  310   1.158   0.767   1.266
   78DMSO    OD  311   1.420   0.722   1.254
   78DMSO   CD2  312   1.331   0.973   1.247
   79DMSO    SD  313   1.488   0.049   2.441
   79DMSO   CD1  314   1.594   0.032   2.596
   79DMSO    OD  315   1.523   0.192   2.379
   79DMSO   CD2  316   1.577   3.001   2.337
   80DMSO    SD  317   0.424   0.892   2.401
   80DMSO   CD1  318   0.267   0.956   2.361
   80DMSO    OD  319   0.522   0.999   2.375
   80DMSO   CD2  320   0.401   0.885   2.573
   81DMSO    SD  321   2.997   1.203   0.468
   81DMSO   CD1  322   2.971   1.312   0.323
   81DMSO    OD  323   2.858   1.145   0.507
   81DMSO   CD2  324   0.006   1.069   0.380
   82DMSO    SD  325   0.018   2.392   0.495
   82DMSO   CD1  326   3.042   2.347   0.331
   82DMSO    OD  327   0.093   2.272   0.551
   82DMSO   CD2  328   0.143   2.512   0.445
   83DMSO    SD  329   2.053   2.329   1.220
   83DMSO   CD1  330   1.884   2.272   1.196
   83DMSO    OD  331   2.100   2.272   1.354
   83DMSO   CD2  332   2.131   2.230   1.092
   84DMSO    SD  333   0.044   2.445   2.097
   84DMSO   CD1  334   3.010   2.534   2.046
   84DMSO    OD  335   0.076   2.489   2.215
   84DMSO   CD2  336   3.041   2.318   2.118
   85DMSO    SD  337   0.070   0.724   2.635
   85DMSO   CD1  338   3.033   0.692   2.491
   85DMSO    OD  339   0.061   0.880   2.668
   85DMSO   CD2  340   3.051   0.635   2.768
   86DMSO    SD  341   0.117   0.694   0.444
   86DMSO   CD1  342   0.180   0.562   0.497
   86DMSO    OD  343   0.184   0.793   0.501
   86DMSO   CD2  344   0.168   0.683   0.298
   87DMSO    SD  345   1.159   3.036   0.062
   87DMSO   CD1  346   1.100   2.898   3.073
   87DMSO    OD  347   1.077   3.064   0.173
   87DMSO   CD2  348   1.300   2.973   0.121
   88DMSO    SD  349   2.080   0.986   2.520
   88DMSO   CD1  350   1.945   0.865   2.495
   88DMSO    OD  351   2.067   1.038   2.666
   88DMSO   CD2  352   2.219   0.867   2.517
   89DMSO    SD  353   1.864   0.152   0.265
   89DMSO   CD1  354   1.782   0.305   0.342
   89DMSO    OD  355   1.976   0.100   0.370
   89DMSO   CD2  356   1.715   0.034   0.280
   90DMSO    SD  357   2.815   1.635   0.157
   90DMSO   CD1  358   2.891   1.779   0.047
   90DMSO    OD  359   2.908   1.627   0.297
   90DMSO   CD2  360   2.648   1.726   0.206
   91DMSO    SD  361   1.874   1.215   2.227
   91DMSO   CD1  362   2.047   1.254   2.151
   91DMSO    OD  363   1.841   1.335   2.334
   91DMSO   CD2  364   1.768   1.251   2.069
   92DMSO    SD  365   2.858   0.967   0.028
   92DMSO   CD1  366   2.846   1.143   0.024
   92DMSO    OD  367   2.991   0.934   0.090
   92DMSO   CD2  368   2.876   0.942   2.934
   93DMSO    SD  369   1.623   2.814   1.880
   93DMSO   CD1  370   1.471   2.831   1.786
   93DMSO    OD  371   1.601   2.889   2.012
   93DMSO   CD2  372   1.607   2.639   1.918
   94DMSO    SD  373   1.279   2.937   0.755
   94DMSO   CD1  374   1.377   2.906   0.923
   94DMSO    OD  375   1.373   3.040   0.662
   94DMSO   CD2  376   1.301   2.757   0.679
   95DMSO    SD  377   0.342   1.212   1.987
   95DMSO   CD1  378   0.240   1.314   2.072
   95DMSO    OD  379   0.280   1.187   1.861
   95DMSO   CD2  380   0.465   1.323   1.959
   96DMSO    SD  381   3.053   2.154   0.967
   96DMSO   CD1  382   3.036   2.103   0.789
   96DMSO    OD  383   0.081   2.058   1.033
   96DMSO   CD2  384   0.058   2.318   0.937
   97DMSO    SD  385   2.168   1.067   0.434
   97DMSO   CD1  386   2.240   0.940   0.508
   97DMSO    OD  387   2.046   1.088   0.498
   97DMSO   CD2  388   2.269   1.184   0.487
   98DMSO    SD  389   0.532   0.085   2.283
   98DMSO   CD1  390   0.665   0.170   2.189
   98DMSO    OD  391   0.410   0.071   2.186
   98DMSO   CD2  392   0.612   3.000   2.293
   99DMSO    SD  393   1.508   1.035   0.250
   99DMSO   CD1  394   1.378   1.150   0.233
   99DMSO    OD  395   1.523   0.966   0.119
   99DMSO   CD2  396   1.639   1.150   0.262
  100DMSO    SD  397   0.092   0.136   0.736
  100DMSO   CD1  398   0.007   0.150   0.592
  100DMSO    OD  399   0.208   0.218   0.723
  100DMSO   CD2  400   3.064   0.219   0.833
  101DMSO    SD  401   0.171   1.067   1.119
  101DMSO   CD1  402   0.242   1.164   0.992
  101DMSO    OD  403   0.060   0.990   1.057
  101DMSO   CD2  404   0.304   0.956   1.139
  102DMSO    SD  405   0.904   0.657   2.310
  102DMSO   CD1  406   0.970   0.783   2.191
  102DMSO    OD  407   1.019   0.627   2.414
  102DMSO   CD2  408   0.782   0.767   2.396
  103DMSO    SD  409   2.376   2.651   2.307
  103DMSO   CD1  410   2.450   2.488   2.329
  103DMSO    OD  411   2.224   2.631   2.302
  103DMSO   CD2  412   2.415   2.716   2.471
  104DMSO    SD  413   0.323   0.526   1.042
  104DMSO   CD1  414   0.166   0.518   1.151
  104DMSO    OD  415   0.448   0.548   1.143
  104DMSO   CD2  416   0.325   0.342   0.990
  105DMSO    SD  417   0.755   1.076   1.993
  105DMSO   CD1  418   0.925   1.129   1.984
  105DMSO    OD  419   0.757   0.924   1.999
  105DMSO   CD2  420   0.722   1.133   2.159
  106DMSO    SD  421   0.811   3.005   1.806
  106DMSO   CD1  422   0.940   0.044   1.797
  106DMSO    OD  423   0.821   2.942   1.941
  106DMSO   CD2  424   0.676   0.037   1.812
  107DMSO    SD  425   0.844   2.881   1.464
  107DMSO   CD1  426   0.889   2.807   1.288
  107DMSO    OD  427   0.946   3.011   1.488
  107DMSO   CD2  428   0.669   2.955   1.417
  108DMSO    SD  429   0.067   2.562   1.323
  108DMSO   CD1  430   3.062   2.411   1.307
  108DMSO    OD  431   0.051   2.634   1.195
  108DMSO   CD2  432   3.038   2.637   1.436
  109DMSO    SD  433   0.038   2.564   2.573
  109DMSO   CD1  434   2.968   2.598   2.496
  109DMSO    OD  435   0.047   2.654   2.687
  109DMSO   CD2  436   3.076   2.410   2.635
  110DMSO    SD  437   2.827   1.758   1.634
  110DMSO   CD1  438   2.719   1.633   1.554
  110DMSO    OD  439   2.868   1.700   1.773
  110DMSO   CD2  440   2.972   1.739   1.523
  111DMSO    SD  441   2.122   0.023   3.033
  111DMSO   CD1  442   2.032   2.956   3.055
  111DMSO    OD  443   2.264   3.064   3.017
  111DMSO   CD2  444   2.063   0.063   2.875
  112DMSO    SD  445   2.721   2.637   1.210
  112DMSO   CD1  446   2.587   2.500   1.190
  112DMSO    OD  447   2.689   2.751   1.097
  112DMSO   CD2  448   2.659   2.707   1.379
  113DMSO    SD  449   1.358   1.890   2.321
  113DMSO   CD1  450   1.193   1.881   2.286
  113DMSO    OD  451   1.410   1.757   2.310
  113DMSO   CD2  452   1.405   1.973   2.182
  114DMSO    SD  453   2.704   2.139   1.328
  114DMSO   CD1  454   2.834   2.037   1.241
  114DMSO    OD  455   2.759   2.287   1.332
  114DMSO   CD2  456   2.575   2.133   1.194
  115DMSO    SD  457   2.830   0.335   2.353
  115DMSO   CD1  458   2.852   0.319   2.535
  115DMSO    OD  459   2.813   0.487   2.323
  115DMSO   CD2  460   3.001   0.290   2.304
  116DMSO    SD  461   0.863   2.663   2.725
  116DMSO   CD1  462   0.742   2.780   2.702
  116DMSO    OD  463   0.974   2.729   2.789
  116DMSO   CD2  464   0.784   2.573   2.845
  117DMSO    SD  465   1.368   1.886   2.953
  117DMSO   CD1  466   1.421   2.019   3.035
  117DMSO    OD  467   1.288   1.812   3.041
  117DMSO   CD2  468   1.266   1.964   2.848
  118DMSO    SD  469   1.327   0.250   0.325
  118DMSO   CD1  470   1.309   0.444   0.370
  118DMSO    OD  471   1.442   0.238   0.199
  118DMSO   CD2  472   1.419   0.192   0.493
  119DMSO    SD  473   0.421   1.699   1.778
  119DMSO   CD1  474   0.584   1.752   1.857
  119DMSO    OD  475   0.349   1.600   1.882
  119DMSO   CD2  476   0.333   1.865   1.791
  120DMSO    SD  477   3.027   0.485   1.543
  120DMSO   CD1  478   3.070   0.366   1.688
  120DMSO    OD  479   0.048   0.448   1.420
  120DMSO   CD2  480   2.856   0.411   1.499
  121DMSO    SD  481   1.148   0.408   2.180
  121DMSO   CD1  482   1.271   0.376   2.332
  121DMSO    OD  483   1.223   0.346   2.043
  121DMSO   CD2  484   1.008   0.278   2.233
  122DMSO    SD  485   2.747   1.248   0.915
  122DMSO   CD1  486   2.676   1.159   0.771
  122DMSO    OD  487   2.673   1.195   1.040
  122DMSO   CD2  488   2.911   1.168   0.913
  123DMSO    SD  489   0.863   1.666   1.331
  123DMSO   CD1  490   0.762   1.826   1.335
  123DMSO    OD  491   0.948   1.668   1.195
  123DMSO   CD2  492   0.982   1.709   1.471
  124DMSO    SD  493   1.436   2.807   2.738
  124DMSO   CD1  494   1.335   2.687   2.801
  124DMSO    OD  495   1.378   2.935   2.774
  124DMSO   CD2  496   1.568   2.782   2.842
  125DMSO    SD  497   2.151   2.908   0.578
  125DMSO   CD1  498   2.231   3.019   0.448
  125DMSO    OD  499   2.261   2.883   0.692
  125DMSO   CD2  500   2.029   3.034   0.647
  126DMSO    SD  501   2.303   1.445   0.837
  126DMSO   CD1  502   2.306   1.258   0.890
  126DMSO    OD  503   2.145   1.486   0.817
  126DMSO   CD2  504   2.359   1.519   1.007
  127DMSO    SD  505   2.226   2.929   1.559
  127DMSO   CD1  506   2.251   3.075   1.442
  127DMSO    OD  507   2.170   2.807   1.470
  127DMSO   CD2  508   2.408   2.892   1.591
  128DMSO    SD  509   0.322   0.517   2.871
  128DMSO   CD1  510   0.232   0.365   2.881
  128DMSO    OD  511   0.262   0.609   2.973
  128DMSO   CD2  512   0.473   0.458   2.940
  129DMSO    SD  513   0.880   1.551   0.443
  129DMSO   CD1  514   0.897   1.450   0.600
  129DMSO    OD  515   0.781   1.471   0.346
  129DMSO   CD2  516   0.780   1.692   0.516
  130DMSO    SD  517   1.698   0.179   2.953
  130DMSO   CD1  518   1.647   0.331   3.058
  130DMSO    OD  519   1.800   0.091   3.045
  130DMSO   CD2  520   1.529   0.089   2.956
  131DMSO    SD  521   2.048   0.709   2.123
  131DMSO   CD1  522   1.930   0.629   1.997
  131DMSO    OD  523   2.197   0.695   2.063
  131DMSO   CD2  524   1.994   0.889   2.097
  132DMSO    SD  525   1.794   0.730   0.090
  132DMSO   CD1  526   1.878   0.849   0.186
  132DMSO    OD  527   1.886   0.614   0.076
  132DMSO   CD2  528   1.674   0.686   0.209
  133DMSO    SD  529   1.658   1.137   1.659
  133DMSO   CD1  530   1.515   1.112   1.546
  133DMSO    OD  531   1.764   1.221   1.579
  133DMSO   CD2  532   1.576   1.252   1.776
  134DMSO    SD  533   0.933   1.520   1.964
  134DMSO   CD1  534   0.910   1.692   2.029
  134DMSO    OD  535   0.807   1.437   2.012
  134DMSO   CD2  536   0.907   1.558   1.785
  135DMSO    SD  537   2.118   2.469   0.328
  135DMSO   CD1  538   1.933   2.513   0.360
  135DMSO    OD  539   2.164   2.554   0.195
  135DMSO   CD2  540   2.193   2.561   0.480
  136DMSO    SD  541   1.718   2.207   2.277
  136DMSO   CD1  542   1.862   2.308   2.267
  136DMSO    OD  543   1.612   2.275   2.195
  136DMSO   CD2  544   1.778   2.072   2.181
  137DMSO    SD  545   1.000   1.062   3.002
  137DMSO   CD1  546   1.170   1.121   2.966
  137DMSO    OD  547   0.945   1.000   2.870
  137DMSO   CD2  548   1.047   0.922   0.031
  138DMSO    SD  549   3.048   2.647   0.781
  138DMSO   CD1  550   2.905   2.616   0.892
  138DMSO    OD  551   2.989   2.687   0.642
  138DMSO   CD2  552   0.026   2.803   0.861
  139DMSO    SD  553   2.677   0.522   1.054
  139DMSO   CD1  554   2.801   0.422   1.113
  139DMSO    OD  555   2.627   0.460   0.933
  139DMSO   CD2  556   2.563   0.491   1.177
  140DMSO    SD  557   2.238   0.306   1.702
  140DMSO   CD1  558   2.388   0.298   1.632
  140DMSO    OD  559   2.189   0.174   1.710
  140DMSO   CD2  560   2.289   0.348   1.854
  141DMSO    SD  561   0.841   2.932   0.772
  141DMSO   CD1  562   0.785   2.837   0.915
  141DMSO    OD  563   0.960   2.855   0.711
  141DMSO   CD2  564   0.698   2.900   0.665
  142DMSO    SD  565   2.643   0.797   0.396
  142DMSO   CD1  566   2.600   0.981   0.385
  142DMSO    OD  567   2.642   0.740   0.245
  142DMSO   CD2  568   2.824   0.817   0.446
  143DMSO    SD  569   2.095   1.598   2.265
  143DMSO   CD1  570   2.264   1.617   2.230
  143DMSO    OD  571   2.043   1.732   2.297
  143DMSO   CD2  572   2.113   1.514   2.416
  144DMSO    SD  573   0.919   2.245   1.473
  144DMSO   CD1  574   0.861   2.383   1.382
  144DMSO    OD  575   0.851   2.125   1.417
  144DMSO   CD2  576   1.083   2.245   1.412
  145DMSO    SD  577   1.467   2.128   1.752
  145DMSO   CD1  578   1.529   2.156   1.597
  145DMSO    OD  579   1.578   2.082   1.833
  145DMSO   CD2  580   1.440   2.289   1.795
  146DMSO    SD  581   0.602   2.088   2.381
  146DMSO   CD1  582   0.615   2.019   2.556
  146DMSO    OD  583   0.588   2.247   2.395
  146DMSO   CD2  584   0.780   2.054   2.329
  147DMSO    SD  585   2.605   0.749   1.870
  147DMSO   CD1  586   2.462   0.678   1.788
  147DMSO    OD  587   2.635   0.661   1.990
  147DMSO   CD2  588   2.725   0.709   1.744
  148DMSO    SD  589   1.574   1.502   0.396
  148DMSO   CD1  590   1.438   1.453   0.504
  148DMSO    OD  591   1.536   1.458   0.253
  148DMSO   CD2  592   1.547   1.681   0.404
  149DMSO    SD  593   0.195   0.314   2.061
  149DMSO   CD1  594   0.182   0.500   2.078
  149DMSO    OD  595   0.076   0.269   1.968
  149DMSO   CD2  596   0.350   0.310   1.958
  150DMSO    SD  597   2.635   1.264   1.371
  150DMSO   CD1  598   2.808   1.336   1.348
  150DMSO    OD  599   2.598   1.281   1.527
  150DMSO   CD2  600   2.540   1.398   1.278
  151DMSO    SD  601   2.176   2.518   2.803
  151DMSO   CD1  602   2.209   2.700   2.796
  151DMSO    OD  603   2.317   2.447   2.819
  151DMSO   CD2  604   2.096   2.514   2.971
  152DMSO    SD  605   1.703   2.765   0.519
  152DMSO   CD1  606   1.665   2.904   0.642
  152DMSO    OD  607   1.838   2.807   0.442
  152DMSO   CD2  608   1.559   2.798   0.400
  153DMSO    SD  609   1.610   1.772   0.839
  153DMSO   CD1  610   1.688   1.928   0.916
  153DMSO    OD  611   1.642   1.778   0.680
  153DMSO   CD2  612   1.730   1.645   0.915
  154DMSO    SD  613   0.141   2.052   2.520
  154DMSO   CD1  614   0.243   1.892   2.486
  154DMSO    OD  615   0.208   2.123   2.652
  154DMSO   CD2  616   0.199   2.152   2.366
  155DMSO    SD  617   2.265   0.900   0.003
  155DMSO   CD1  618   2.409   0.787   0.047
  155DMSO    OD  619   2.249   1.003   0.124
  155DMSO   CD2  620   2.350   0.993   2.943
  156DMSO    SD  621   0.438   1.960   0.582
  156DMSO   CD1  622   0.260   1.986   0.642
  156DMSO    OD  623   0.530   2.067   0.661
  156DMSO   CD2  624   0.467   1.792   0.664
  157DMSO    SD  625   2.747   1.647   1.054
  157DMSO   CD1  626   2.866   1.716   0.919
  157DMSO    OD  627   2.814   1.682   1.199
  157DMSO   CD2  628   2.603   1.773   1.027
  158DMSO    SD  629   0.823   0.557   0.982
  158DMSO   CD1  630   0.732   0.683   1.078
  158DMSO    OD  631   0.954   0.528   1.059
  158DMSO   CD2  632   0.710   0.417   1.014
  159DMSO    SD  633   2.079   0.619   2.847
  159DMSO   CD1  634   1.970   0.513   2.853
  159DMSO    OD  635   2.131   0.612   2.729
  159DMSO   CD2  636   1.988   0.740   2.847
  160DMSO    SD  637   2.341   2.500   1.578
  160DMSO   CD1  638   2.390   2.318   1.555
  160DMSO    OD  639   2.477   2.581   1.610
  160DMSO   CD2  640   2.297   2.536   1.397
  161DMSO    SD  641   1.540   0.333   1.964
  161DMSO   CD1  642   1.569   0.396   2.127
  161DMSO    OD  643   1.675   0.317   1.899
  161DMSO   CD2  644   1.487   0.171   2.012
  162DMSO    SD  645   0.084   1.389   1.676
  162DMSO   CD1  646   0.052   1.514   1.795
  162DMSO    OD  647   3.036   1.364   1.603
  162DMSO   CD2  648   0.185   1.486   1.569
  163DMSO    SD  649   0.508   0.223   0.504
  163DMSO   CD1  650   0.594   0.322   0.375
  163DMSO    OD  651   0.608   0.111   0.548
  163DMSO   CD2  652   0.509   0.350   0.637
  164DMSO    SD  653   2.072   1.834   0.963
  164DMSO   CD1  654   2.145   1.826   1.125
  164DMSO    OD  655   1.997   1.966   0.956
  164DMSO   CD2  656   2.222   1.855   0.871
  165DMSO    SD  657   0.372   0.293   1.595
  165DMSO   CD1  658   0.291   0.237   1.441
  165DMSO    OD  659   0.497   0.203   1.615
  165DMSO   CD2  660   0.432   0.453   1.533
  166DMSO    SD  661   2.529   0.758   2.659
  166DMSO   CD1  662   2.533   0.639   2.802
  166DMSO    OD  663   2.605   0.889   2.707
  166DMSO   CD2  664   2.646   0.666   2.547
  167DMSO    SD  665   1.330   1.694   1.812
  167DMSO   CD1  666   1.337   1.517   1.726
  167DMSO    OD  667   1.169   1.733   1.831
  167DMSO   CD2  668   1.396   1.639   1.989
  168DMSO    SD  669   2.074   0.482   1.276
  168DMSO   CD1  670   2.159   0.329   1.266
  168DMSO    OD  671   1.941   0.454   1.340
  168DMSO   CD2  672   2.174   0.556   1.400
  169DMSO    SD  673   0.953   1.649   2.459
  169DMSO   CD1  674   0.874   1.486   2.465
  169DMSO    OD  675   0.893   1.722   2.338
  169DMSO   CD2  676   0.874   1.718   2.606
  170DMSO    SD  677   2.876   0.810   1.365
  170DMSO   CD1  678   2.836   0.960   1.255
  170DMSO    OD  679   2.796   0.684   1.302
  170DMSO   CD2  680   3.058   0.790   1.315
  171DMSO    SD  681   0.140   1.626   0.633
  171DMSO   CD1  682   0.104   1.628   0.456
  171DMSO    OD  683   0.049   1.731   0.699
  171DMSO   CD2  684   0.069   1.464   0.670
  172DMSO    SD  685   0.540   2.056   1.081
  172DMSO   CD1  686   0.396   2.097   0.975
  172DMSO    OD  687   0.584   1.911   1.042
  172DMSO   CD2  688   0.660   2.170   1.003
  173DMSO    SD  689   0.346   1.407   2.526
  173DMSO   CD1  690   0.480   1.323   2.480
  173DMSO    OD  691   0.249   1.388   2.426
  173DMSO   CD2  692   0.303   1.311   2.653
  174DMSO    SD  693   1.150   2.892   2.026
  174DMSO   CD1  694   1.056   3.029   2.132
  174DMSO    OD  695   1.207   2.968   1.888
  174DMSO   CD2  696   1.304   2.869   2.146
  175DMSO    SD  697   0.475   1.592   0.271
  175DMSO   CD1  698   0.576   1.661   0.170
  175DMSO    OD  699   0.406   1.692   0.329
  175DMSO   CD2  700   0.379   1.527   0.163
  176DMSO    SD  701   1.874   0.012   1.576
  176DMSO   CD1  702   1.741   0.074   1.702
  176DMSO    OD  703   1.803   2.972   1.487
  176DMSO   CD2  704   1.878   0.170   1.464
  177DMSO    SD  705   2.501   2.216   0.013
  177DMSO   CD1  706   2.379   2.340   0.089
  177DMSO    OD  707   2.501   2.086   0.109
  177DMSO   CD2  708   2.398   2.171   2.940
  178DMSO    SD  709   0.933   0.327   1.508
  178DMSO   CD1  710   0.789   0.226   1.425
  178DMSO    OD  711   1.054   0.219   1.541
  178DMSO   CD2  712   0.988   0.427   1.351
  179DMSO    SD  713   0.146   2.364   1.648
  179DMSO   CD1  714   0.201   2.233   1.765
  179DMSO    OD  715   0.061   2.466   1.731
  179DMSO   CD2  716   0.310   2.442   1.621
  180DMSO    SD  717   1.085   1.133   1.490
  180DMSO   CD1  718   1.091   1.282   1.587
  180DMSO    OD  719   0.998   1.035   1.566
  180DMSO   CD2  720   0.985   1.197   1.357
  181DMSO    SD  721   0.006   1.645   2.855
  181DMSO   CD1  722   0.103   1.633   2.715
  181DMSO    OD  723   2.977   1.735   2.822
  181DMSO   CD2  724   3.022   1.487   2.850
  182DMSO    SD  725   1.589   0.917   1.960
  182DMSO   CD1  726   1.417   0.966   2.003
  182DMSO    OD  727   1.675   0.941   2.088
  182DMSO   CD2  728   1.560   0.736   1.949
  183DMSO    SD  729   1.232   0.736   1.761
  183DMSO   CD1  730   1.143   0.665   1.607
  183DMSO    OD  731   1.347   0.838   1.705
  183DMSO   CD2  732   1.088   0.845   1.824
  184DMSO    SD  733   1.315   2.473   2.134
  184DMSO   CD1  734   1.261   2.327   2.214
  184DMSO    OD  735   1.195   2.559   2.116
  184DMSO   CD2  736   1.405   2.540   2.269
  185DMSO    SD  737   2.278   0.477   0.177
  185DMSO   CD1  738   2.352   0.529   0.328
  185DMSO    OD  739   2.385   0.409   0.098
  185DMSO   CD2  740   2.176   0.351   0.244
  186DMSO    SD  741   2.473   0.922   1.444
  186DMSO   CD1  742   2.427   1.012   1.580
  186DMSO    OD  743   2.440   0.784   1.472
  186DMSO   CD2  744   2.354   0.980   1.338
  187DMSO    SD  745   1.017   0.969   0.934
  187DMSO   CD1  746   1.096   0.808   0.915
  187DMSO    OD  747   1.067   1.028   1.066
  187DMSO   CD2  748   1.104   1.054   0.802
  188DMSO    SD  749   2.803   0.583   3.065
  188DMSO   CD1  750   2.968   0.593   0.051
  188DMSO    OD  751   2.813   0.507   2.934
  188DMSO   CD2  752   2.736   0.469   0.105
  189DMSO    SD  753   2.587   0.117   1.237
  189DMSO   CD1  754   2.562   3.034   1.161
  189DMSO    OD  755   2.447   0.174   1.266
  189DMSO   CD2  756   2.654   0.060   1.395
  190DMSO    SD  757   0.594   2.588   1.900
  190DMSO   CD1  758   0.593   2.713   2.036
  190DMSO    OD  759   0.467   2.499   1.920
  190DMSO   CD2  760   0.558   2.704   1.761
  191DMSO    SD  761   0.231   2.951   1.664
  191DMSO   CD1  762   0.303   3.005   1.809
  191DMSO    OD  763   0.338   2.932   1.568
  191DMSO   CD2  764   0.185   2.795   1.719
  192DMSO    SD  765   2.283   2.120   2.576
  192DMSO   CD1  766   2.159   2.124   2.662
  192DMSO    OD  767   2.358   2.030   2.625
  192DMSO   CD2  768   2.219   2.062   2.453
  193DMSO    SD  769   1.948   0.813   1.167
  193DMSO   CD1  770   1.944   0.973   1.065
  193DMSO    OD  771   2.057   0.836   1.283
  193DMSO   CD2  772   1.777   0.831   1.247
  194DMSO    SD  773   0.525   1.728   2.269
  194DMSO   CD1  774   0.357   1.692   2.195
  194DMSO    OD  775   0.508   1.725   2.427
  194DMSO   CD2  776   0.608   1.567   2.221
  195DMSO    SD  777   1.753   1.196   0.831
  195DMSO   CD1  778   1.920   1.214   0.779
  195DMSO    OD  779   1.708   1.331   0.875
  195DMSO   CD2  780   1.683   1.169   0.672
  196DMSO    SD  781   3.034   1.829   2.217
  196DMSO   CD1  782   3.069   1.671   2.241
  196DMSO    OD  783   0.073   1.893   2.183
  196DMSO   CD2  784   2.948   1.811   2.078
  197DMSO    SD  785   1.027   2.662   0.352
  197DMSO   CD1  786   0.939   2.603   0.505
  197DMSO    OD  787   0.921   2.661   0.234
  197DMSO   CD2  788   1.048   2.840   0.403
  198DMSO    SD  789   1.377   0.243   1.546
  198DMSO   CD1  790   1.310   0.339   1.682
  198DMSO    OD  791   1.528   0.255   1.554
  198DMSO   CD2  792   1.334   0.081   1.608
  199DMSO    SD  793   3.035   0.016   1.212
  199DMSO   CD1  794   0.005   3.057   1.381
  199DMSO    OD  795   0.084   0.032   1.130
  199DMSO   CD2  796   2.967   2.933   1.169
  200DMSO    SD  797   2.872   2.183   1.712
  200DMSO   CD1  798   2.723   2.122   1.703
  200DMSO    OD  799   2.947   2.115   1.619
  200DMSO   CD2  800   2.839   2.327   1.647
  201DMSO    SD  801   0.463   0.754   1.928
  201DMSO   CD1  802   0.521   0.707   2.084
  201DMSO    OD  803   0.423   0.630   1.859
  201DMSO   CD2  804   0.317   0.831   1.980
  202DMSO    SD  805   1.139   1.857   0.380
  202DMSO   CD1  806   1.136   1.975   0.523
  202DMSO    OD  807   1.010   1.886   0.295
  202DMSO   CD2  808   1.281   1.933   0.289
  203DMSO    SD  809   1.987   0.636   0.662
  203DMSO   CD1  810   1.922   0.801   0.623
  203DMSO    OD  811   2.113   0.617   0.578
  203DMSO   CD2  812   2.041   0.673   0.830
  204DMSO    SD  813   0.593   2.507   0.334
  204DMSO   CD1  814   0.616   2.565   0.165
  204DMSO    OD  815   0.493   2.602   0.400
  204DMSO   CD2  816   0.503   2.357   0.294
  205DMSO    SD  817   2.805   2.950   2.384
  205DMSO   CD1  818   2.760   2.883   2.224
  205DMSO    OD  819   2.900   3.066   2.357
  205DMSO   CD2  820   2.646   3.023   2.424
  206DMSO    SD  821   2.690   0.412   0.514
  206DMSO   CD1  822   2.868   0.432   0.467
  206DMSO    OD  823   2.615   0.358   0.387
  206DMSO   CD2  824   2.712   0.268   0.628
  207DMSO    SD  825   2.381   2.042   0.407
  207DMSO   CD1  826   2.378   2.222   0.463
  207DMSO    OD  827   2.353   1.953   0.537
  207DMSO   CD2  828   2.221   2.045   0.307
  208DMSO    SD  829   2.007   1.699   0.515
  208DMSO   CD1  830   2.172   1.657   0.524
  208DMSO    OD  831   1.968   1.686   0.376
  208DMSO   CD2  832   1.945   1.562   0.596
  209DMSO    SD  833   0.974   1.762   0.887
  209DMSO   CD1  834   0.817   1.658   0.909
  209DMSO    OD  835   0.979   1.808   0.732
  209DMSO   CD2  836   0.918   1.913   0.988
  210DMSO    SD  837   1.416   2.282   1.075
  210DMSO   CD1  838   1.507   2.243   0.916
  210DMSO    OD  839   1.505   2.224   1.194
  210DMSO   CD2  840   1.442   2.467   1.074
  211DMSO    SD  841   0.470   1.758   2.909
  211DMSO   CD1  842   0.412   1.921   2.842
  211DMSO    OD  843   0.341   1.679   2.955
  211DMSO   CD2  844   0.523   1.684   2.748
  212DMSO    SD  845   1.296   1.495   2.706
  212DMSO   CD1  846   1.350   1.654   2.629
  212DMSO    OD  847   1.149   1.469   2.657
  212DMSO   CD2  848   1.405   1.383   2.608
  213DMSO    SD  849   1.118   2.045   1.812
  213DMSO   CD1  850   0.963   1.963   1.749
  213DMSO    OD  851   1.128   2.185   1.740
  213DMSO   CD2  852   1.060   2.077   1.985
  214DMSO    SD  853   1.766   2.615   0.941
  214DMSO   CD1  854   1.694   2.742   1.004
  214DMSO    OD  855   1.686   2.571   0.840
  214DMSO   CD2  856   1.887   2.692   0.872
  215DMSO    SD  857   1.474   0.785   2.808
  215DMSO   CD1  858   1.525   0.933   2.843
  215DMSO    OD  859   1.585   0.711   2.778
  215DMSO   CD2  860   1.428   0.743   2.956
  216DMSO    SD  861   2.457   1.294   0.144
  216DMSO   CD1  862   2.521   1.303   3.047
  216DMSO    OD  863   2.585   1.284   0.239
  216DMSO   CD2  864   2.395   1.471   0.156
  217DMSO    SD  865   1.298   2.705   1.307
  217DMSO   CD1  866   1.261   2.828   1.426
  217DMSO    OD  867   1.423   2.749   1.238
  217DMSO   CD2  868   1.345   2.579   1.419
  218DMSO    SD  869   1.532   2.492   0.137
  218DMSO   CD1  870   1.665   2.579   0.093
  218DMSO    OD  871   1.437   2.584   0.183
  218DMSO   CD2  872   1.485   2.448   3.064
  219DMSO    SD  873   0.701   2.184   1.948
  219DMSO   CD1  874   0.554   2.213   2.028
  219DMSO    OD  875   0.722   2.041   1.948
  219DMSO   CD2  876   0.649   2.226   1.791
  220DMSO    SD  877   1.795   2.193   0.015
  220DMSO   CD1  878   1.962   2.216   0.085
  220DMSO    OD  879   1.767   2.316   3.004
  220DMSO   CD2  880   1.835   2.053   2.984
  221DMSO    SD  881   0.818   2.014   2.962
  221DMSO   CD1  882   0.901   1.901   3.041
  221DMSO    OD  883   0.752   1.950   2.861
  221DMSO   CD2  884   0.710   2.044   3.076
  222DMSO    SD  885   1.963   2.184   0.647
  222DMSO   CD1  886   1.912   2.356   0.713
  222DMSO    OD  887   1.986   2.200   0.487
  222DMSO   CD2  888   2.136   2.177   0.727
  223DMSO    SD  889   2.279   2.578   0.833
  223DMSO   CD1  890   2.447   2.483   0.859
  223DMSO    OD  891   2.159   2.480   0.892
  223DMSO   CD2  892   2.307   2.717   0.967
  224DMSO    SD  893   0.058   1.707   1.200
  224DMSO   CD1  894   0.032   1.542   1.176
  224DMSO    OD  895   0.161   1.718   1.300
  224DMSO   CD2  896   0.131   1.739   1.051
  225DMSO    SD  897   1.972   3.057   1.084
  225DMSO   CD1  898   2.137   3.027   1.028
  225DMSO    OD  899   1.880   3.010   0.975
  225DMSO   CD2  900   1.968   2.935   1.211
  226DMSO    SD  901   0.606   1.303   2.911
  226DMSO   CD1  902   0.748   1.379   2.997
  226DMSO    OD  903   0.640   1.305   2.760
  226DMSO   CD2  904   0.633   1.132   2.968
  227DMSO    SD  905   0.045   2.892   2.163
  227DMSO   CD1  906   0.105   3.063   2.192
  227DMSO    OD  907   0.005   2.883   2.012
  227DMSO   CD2  908   0.207   2.806   2.181
  228DMSO    SD  909   0.989   1.080   2.461
  228DMSO   CD1  910   0.839   1.117   2.535
  228DMSO    OD  911   0.995   1.159   2.338
  228DMSO   CD2  912   1.090   1.158   2.575
  229DMSO    SD  913   0.388   0.997   1.551
  229DMSO   CD1  914   0.297   0.863   1.577
  229DMSO    OD  915   0.468   0.971   1.439
  229DMSO   CD2  916   0.267   1.096   1.500
  230DMSO    SD  917   1.041   0.627   2.795
  230DMSO   CD1  918   1.108   0.759   2.711
  230DMSO    OD  919   1.087   0.637   2.931
  230DMSO   CD2  920   0.880   0.682   2.794
  231DMSO    SD  921   1.733   1.647   2.992
  231DMSO   CD1  922   1.591   1.543   2.981
  231DMSO    OD  923   1.720   1.749   2.883
  231DMSO   CD2  924   1.691   1.727   0.063
  232DMSO    SD  925   0.056   0.215   0.218
  232DMSO   CD1  926   0.227   0.191   0.189
  232DMSO    OD  927   0.037   0.360   0.247
  232DMSO   CD2  928   0.001   0.189   0.053
  233DMSO    SD  929   1.828   0.297   2.519
  233DMSO   CD1  930   1.997   0.346   2.491
  233DMSO    OD  931   1.814   0.273   2.669
  233DMSO   CD2  932   1.752   0.455   2.485
  234DMSO    SD  933   0.357   0.497   2.467
  234DMSO   CD1  934   0.512   0.467   2.376
  234DMSO    OD  935   0.271   0.591   2.380
  234DMSO   CD2  936   0.287   0.331   2.449
  235DMSO    SD  937   0.799   2.225   0.504
  235DMSO   CD1  938   0.855   2.170   0.659
  235DMSO    OD  939   0.916   2.283   0.435
  235DMSO   CD2  940   0.773   2.068   0.434
  236DMSO    SD  941   0.663   0.850   0.661
  236DMSO   CD1  942   0.510   0.809   0.753
  236DMSO    OD  943   0.773   0.878   0.767
  236DMSO   CD2  944   0.695   0.683   0.594
  237DMSO    SD  945   1.838   1.905   2.508
  237DMSO   CD1  946   1.695   1.860   2.568
  237DMSO    OD  947   1.852   2.039   2.536
  237DMSO   CD2  948   1.931   1.825   2.612
  238DMSO    SD  949   0.338   2.906   3.052
  238DMSO   CD1  950   0.296   2.798   2.912
  238DMSO    OD  951   0.231   3.018   3.055
  238DMSO   CD2  952   0.296   2.790   0.106
  239DMSO    SD  953   0.745   0.321   2.699
  239DMSO   CD1  954   0.843   0.330   2.537
  239DMSO    OD  955   0.591   0.345   2.661
  239DMSO   CD2  956   0.766   0.136   2.730
  240DMSO    SD  957   0.717   0.725   1.528
  240DMSO   CD1  958   0.803   0.838   1.405
  240DMSO    OD  959   0.820   0.610   1.566
  240DMSO   CD2  960   0.713   0.845   1.672
  241DMSO    SD  961   2.942   2.106   3.012
  241DMSO   CD1  962   0.005   2.091   2.886
  241DMSO    OD  963   3.010   2.103   0.080
  241DMSO   CD2  964   2.898   2.289   2.977
  242DMSO    SD  965   1.154   2.303   0.051
  242DMSO   CD1  966   1.032   2.189   0.151
  242DMSO    OD  967   1.173   2.234   2.982
  242DMSO   CD2  968   1.035   2.454   0.028
  243DMSO    SD  969   0.349   1.226   0.554
  243DMSO   CD1  970   0.482   1.325   0.571
  243DMSO    OD  971   0.264   1.288   0.458
  243DMSO   CD2  972   0.425   1.101   0.476
  244DMSO    SD  973   2.298   0.310   0.869
  244DMSO   CD1  974   2.281   0.287   0.695
  244DMSO    OD  975   2.178   0.248   0.933
  244DMSO   CD2  976   2.432   0.199   0.893
  245DMSO    SD  977   1.290   0.288   2.725
  245DMSO   CD1  978   1.264   0.343   2.885
  245DMSO    OD  979   1.163   0.302   2.655
  245DMSO   CD2  980   1.390   0.417   2.674
  246DMSO    SD  981   1.828   1.784   1.424
  246DMSO   CD1  982   1.815   1.921   1.309
  246DMSO    OD  983   1.926   1.685   1.362
  246DMSO   CD2  984   1.917   1.871   1.553
  247DMSO    SD  985   0.467   0.017   1.063
  247DMSO   CD1  986   0.392   3.040   1.200
  247DMSO    OD  987   0.604   3.064   1.076
  247DMSO   CD2  988   0.402   2.987   0.956
  248DMSO    SD  989   1.102   0.013   1.072
  248DMSO   CD1  990   1.127   0.052   1.251
  248DMSO    OD  991   1.079   2.938   1.063
  248DMSO   CD2  992   0.938   0.093   1.053
  249DMSO    SD  993   2.612   1.601   0.599
  249DMSO   CD1  994   2.574   1.434   0.526
  249DMSO    OD  995   2.584   1.590   0.754
  249DMSO   CD2  996   2.797   1.595   0.577
  250DMSO    SD  997   2.040   2.210   1.853
  250DMSO   CD1  998   1.861   2.248   1.867
  250DMSO    OD  999   2.059   2.061   1.896
  250DMSO   CD2 1000   2.051   2.214   1.670
   3.07990   3.07990   3.07990
