methanol in opls.ff
10368
    1MeO      C    1   4.069   1.194   3.998
    1MeO     HA    2   4.154   1.251   3.959
    1MeO     HB    3   4.082   1.089   3.970
    1MeO     HC    4   3.978   1.231   3.952
    1MeO      O    5   4.062   1.206   4.139
    1MeO      H    6   4.142   1.164   4.173
    2MeO      C    7   3.992   1.891   1.903
    2MeO     HA    8   3.949   1.942   1.817
    2MeO     HB    9   4.094   1.926   1.917
    2MeO     HC   10   3.995   1.784   1.881
    2MeO      O   11   3.914   1.914   2.018
    2MeO      H   12   3.933   2.003   2.047
    3MeO      C   13   4.655   3.592   2.844
    3MeO     HA   14   4.687   3.506   2.784
    3MeO     HB   15   4.707   3.680   2.809
    3MeO     HC   16   4.548   3.607   2.830
    3MeO      O   17   4.684   3.569   2.981
    3MeO      H   18   4.780   3.564   2.988
    4MeO      C   19   4.754   2.544   2.257
    4MeO     HA   20   4.796   2.635   2.215
    4MeO     HB   21   4.734   2.559   2.363
    4MeO     HC   22   4.659   2.524   2.206
    4MeO      O   23   4.843   2.436   2.237
    4MeO      H   24   4.852   2.425   2.142
    5MeO      C   25   4.004   1.255   1.267
    5MeO     HA   26   3.956   1.340   1.218
    5MeO     HB   27   4.092   1.291   1.321
    5MeO     HC   28   3.935   1.212   1.340
    5MeO      O   29   4.042   1.157   1.172
    5MeO      H   30   4.086   1.086   1.220
    6MeO      C   31   4.376   2.914   2.793
    6MeO     HA   32   4.374   2.970   2.886
    6MeO     HB   33   4.406   2.812   2.815
    6MeO     HC   34   4.450   2.958   2.726
    6MeO      O   35   4.248   2.915   2.733
    6MeO      H   36   4.188   2.869   2.792
    7MeO      C   37   2.061   2.894   4.756
    7MeO     HA   38   2.030   2.949   4.668
    7MeO     HB   39   2.167   2.870   4.746
    7MeO     HC   40   2.049   2.959   4.843
    7MeO      O   41   1.985   2.777   4.773
    7MeO      H   42   2.018   2.734   4.852
    8MeO      C   43   0.055   1.168   3.523
    8MeO     HA   44   0.131   1.230   3.475
    8MeO     HB   45   4.882   1.206   3.495
    8MeO     HC   46   0.065   1.066   3.487
    8MeO      O   47   0.071   1.172   3.664
    8MeO      H   48   0.159   1.136   3.682
    9MeO      C   49   3.116   1.389   2.399
    9MeO     HA   50   3.038   1.462   2.423
    9MeO     HB   51   3.172   1.367   2.490
    9MeO     HC   52   3.069   1.298   2.364
    9MeO      O   53   3.203   1.441   2.300
    9MeO      H   54   3.264   1.370   2.277
   10MeO      C   55   2.188   2.270   1.916
   10MeO     HA   56   2.211   2.233   1.817
   10MeO     HB   57   2.113   2.348   1.907
   10MeO     HC   58   2.145   2.188   1.974
   10MeO      O   59   2.305   2.319   1.979
   10MeO      H   60   2.369   2.246   1.979
   11MeO      C   61   4.307   0.164   4.178
   11MeO     HA   62   4.330   0.082   4.110
   11MeO     HB   63   4.363   0.150   4.270
   11MeO     HC   64   4.200   0.161   4.201
   11MeO      O   65   4.342   0.288   4.119
   11MeO      H   66   4.438   0.293   4.122
   12MeO      C   67   1.057   2.631   2.083
   12MeO     HA   68   1.049   2.737   2.105
   12MeO     HB   69   1.161   2.600   2.093
   12MeO     HC   70   0.997   2.577   2.157
   12MeO      O   71   1.009   2.604   1.953
   12MeO      H   72   0.916   2.629   1.951
   13MeO      C   73   4.407   2.688   4.410
   13MeO     HA   74   4.342   2.774   4.426
   13MeO     HB   75   4.467   2.672   4.500
   13MeO     HC   76   4.473   2.710   4.327
   13MeO      O   77   4.328   2.574   4.382
   13MeO      H   78   4.274   2.595   4.305
   14MeO      C   79   1.489   1.137   3.116
   14MeO     HA   80   1.475   1.077   3.206
   14MeO     HB   81   1.455   1.078   3.030
   14MeO     HC   82   1.427   1.226   3.124
   14MeO      O   83   1.625   1.172   3.101
   14MeO      H   84   1.632   1.220   3.017
   15MeO      C   85   0.579   3.348   0.603
   15MeO     HA   86   0.491   3.412   0.609
   15MeO     HB   87   0.563   3.273   0.525
   15MeO     HC   88   0.591   3.297   0.699
   15MeO      O   89   0.693   3.426   0.573
   15MeO      H   90   0.676   3.465   0.486
   16MeO      C   91   4.825   4.177   0.561
   16MeO     HA   92   4.798   4.233   0.472
   16MeO     HB   93   4.919   4.126   0.543
   16MeO     HC   94   4.748   4.102   0.580
   16MeO      O   95   4.837   4.263   0.672
   16MeO      H   96   4.858   4.208   0.749
   17MeO      C   97   2.870   4.255   2.065
   17MeO     HA   98   2.867   4.246   1.957
   17MeO     HB   99   2.954   4.196   2.102
   17MeO     HC  100   2.778   4.213   2.106
   17MeO      O  101   2.884   4.390   2.104
   17MeO      H  102   2.964   4.424   2.061
   18MeO      C  103   2.835   4.839   0.224
   18MeO     HA  104   2.794   4.837   0.325
   18MeO     HB  105   2.751   4.836   0.154
   18MeO     HC  106   2.890   0.006   0.210
   18MeO      O  107   2.919   4.727   0.204
   18MeO      H  108   2.864   4.649   0.219
   19MeO      C  109   1.269   1.436   0.592
   19MeO     HA  110   1.195   1.389   0.655
   19MeO     HB  111   1.284   1.538   0.626
   19MeO     HC  112   1.232   1.439   0.490
   19MeO      O  113   1.392   1.365   0.596
   19MeO      H  114   1.450   1.407   0.532
   20MeO      C  115   4.502   1.774   3.023
   20MeO     HA  116   4.454   1.793   2.927
   20MeO     HB  117   4.523   1.668   3.030
   20MeO     HC  118   4.433   1.801   3.102
   20MeO      O  119   4.621   1.850   3.033
   20MeO      H  120   4.595   1.943   3.034
   21MeO      C  121   2.555   4.667   2.474
   21MeO     HA  122   2.660   4.667   2.446
   21MeO     HB  123   2.495   4.664   2.383
   21MeO     HC  124   2.534   4.578   2.533
   21MeO      O  125   2.524   4.784   2.548
   21MeO      H  126   2.546   4.859   2.492
   22MeO      C  127   3.604   2.621   1.372
   22MeO     HA  128   3.526   2.633   1.448
   22MeO     HB  129   3.559   2.578   1.283
   22MeO     HC  130   3.643   2.720   1.348
   22MeO      O  131   3.707   2.538   1.422
   22MeO      H  132   3.735   2.576   1.506
   23MeO      C  133   1.663   4.440   0.274
   23MeO     HA  134   1.722   4.497   0.203
   23MeO     HB  135   1.558   4.462   0.258
   23MeO     HC  136   1.678   4.333   0.255
   23MeO      O  137   1.700   4.472   0.407
   23MeO      H  138   1.639   4.424   0.465
   24MeO      C  139   2.767   2.666   4.287
   24MeO     HA  140   2.697   2.609   4.227
   24MeO     HB  141   2.718   2.696   4.380
   24MeO     HC  142   2.852   2.603   4.312
   24MeO      O  143   2.811   2.780   4.216
   24MeO      H  144   2.859   2.747   4.139
   25MeO      C  145   4.733   3.984   1.913
   25MeO     HA  146   4.641   3.949   1.959
   25MeO     HB  147   4.709   4.023   1.813
   25MeO     HC  148   4.801   3.900   1.902
   25MeO      O  149   4.793   4.085   1.991
   25MeO      H  150   4.874   4.111   1.947
   26MeO      C  151   1.423   0.800   4.872
   26MeO     HA  152   1.383   0.821   4.773
   26MeO     HB  153   1.528   0.771   4.861
   26MeO     HC  154   1.369   0.715   4.915
   26MeO      O  155   1.412   0.913   0.030
   26MeO      H  156   1.450   0.889   0.116
   27MeO      C  157   4.518   4.858   0.036
   27MeO     HA  158   4.451   4.904   4.889
   27MeO     HB  159   4.621   4.868   0.001
   27MeO     HC  160   4.508   4.912   0.130
   27MeO      O  161   4.485   4.722   0.055
   27MeO      H  162   4.397   4.722   0.095
   28MeO      C  163   3.230   0.647   4.744
   28MeO     HA  164   3.324   0.591   4.742
   28MeO     HB  165   3.241   0.730   4.814
   28MeO     HC  166   3.152   0.580   4.781
   28MeO      O  167   3.198   0.694   4.615
   28MeO      H  168   3.188   0.616   4.558
   29MeO      C  169   1.959   3.984   3.979
   29MeO     HA  170   1.854   3.963   3.996
   29MeO     HB  171   1.969   4.035   3.883
   29MeO     HC  172   1.994   4.052   4.057
   29MeO      O  173   2.036   3.866   3.978
   29MeO      H  174   2.127   3.894   3.966
   30MeO      C  175   2.089   1.555   3.728
   30MeO     HA  176   2.048   1.580   3.825
   30MeO     HB  177   2.154   1.469   3.739
   30MeO     HC  178   2.148   1.639   3.692
   30MeO      O  179   1.986   1.526   3.635
   30MeO      H  180   2.030   1.498   3.554
   31MeO      C  181   0.009   1.405   4.723
   31MeO     HA  182   4.829   1.401   4.748
   31MeO     HB  183   0.033   1.321   4.657
   31MeO     HC  184   0.029   1.497   4.669
   31MeO      O  185   0.088   1.398   4.840
   31MeO      H  186   0.180   1.408   4.813
   32MeO      C  187   1.702   0.908   3.315
   32MeO     HA  188   1.662   0.977   3.390
   32MeO     HB  189   1.761   0.832   3.366
   32MeO     HC  190   1.618   0.859   3.265
   32MeO      O  191   1.780   0.978   3.221
   32MeO      H  192   1.724   1.046   3.182
   33MeO      C  193   1.743   2.981   1.362
   33MeO     HA  194   1.704   3.062   1.299
   33MeO     HB  195   1.665   2.950   1.431
   33MeO     HC  196   1.769   2.897   1.299
   33MeO      O  197   1.857   3.025   1.434
   33MeO      H  198   1.889   2.948   1.482
   34MeO      C  199   2.243   3.690   3.728
   34MeO     HA  200   2.164   3.763   3.710
   34MeO     HB  201   2.206   3.591   3.703
   34MeO     HC  202   2.268   3.693   3.834
   34MeO      O  203   2.357   3.722   3.651
   34MeO      H  204   2.381   3.813   3.672
   35MeO      C  205   0.969   0.870   1.812
   35MeO     HA  206   1.058   0.866   1.875
   35MeO     HB  207   0.998   0.841   1.711
   35MeO     HC  208   0.932   0.972   1.810
   35MeO      O  209   0.871   0.782   1.862
   35MeO      H  210   0.909   0.693   1.865
   36MeO      C  211   2.704   1.178   0.789
   36MeO     HA  212   2.805   1.141   0.778
   36MeO     HB  213   2.704   1.260   0.861
   36MeO     HC  214   2.670   1.217   0.693
   36MeO      O  215   2.617   1.076   0.833
   36MeO      H  216   2.529   1.116   0.839
   37MeO      C  217   2.286   4.311   1.955
   37MeO     HA  218   2.361   4.243   1.993
   37MeO     HB  219   2.303   4.410   1.998
   37MeO     HC  220   2.188   4.276   1.988
   37MeO      O  221   2.290   4.318   1.814
   37MeO      H  222   2.219   4.377   1.788
   38MeO      C  223   0.431   3.101   3.407
   38MeO     HA  224   0.531   3.144   3.408
   38MeO     HB  225   0.438   2.995   3.431
   38MeO     HC  226   0.389   3.111   3.307
   38MeO      O  227   0.349   3.168   3.502
   38MeO      H  228   0.392   3.156   3.588
   39MeO      C  229   3.461   1.403   1.655
   39MeO     HA  230   3.444   1.409   1.763
   39MeO     HB  231   3.391   1.469   1.606
   39MeO     HC  232   3.441   1.300   1.623
   39MeO      O  233   3.594   1.440   1.625
   39MeO      H  234   3.604   1.532   1.651
   40MeO      C  235   0.628   1.754   3.628
   40MeO     HA  236   0.545   1.808   3.584
   40MeO     HB  237   0.721   1.800   3.594
   40MeO     HC  238   0.621   1.763   3.736
   40MeO      O  239   0.624   1.618   3.591
   40MeO      H  240   0.542   1.582   3.626
   41MeO      C  241   1.816   1.033   1.533
   41MeO     HA  242   1.806   0.936   1.582
   41MeO     HB  243   1.716   1.069   1.507
   41MeO     HC  244   1.872   1.020   1.441
   41MeO      O  245   1.880   1.126   1.618
   41MeO      H  246   1.887   1.208   1.568
   42MeO      C  247   3.625   2.328   0.967
   42MeO     HA  248   3.582   2.279   1.055
   42MeO     HB  249   3.550   2.330   0.888
   42MeO     HC  250   3.710   2.269   0.933
   42MeO      O  251   3.666   2.459   1.000
   42MeO      H  252   3.733   2.451   1.069
   43MeO      C  253   0.340   4.124   1.172
   43MeO     HA  254   0.441   4.163   1.164
   43MeO     HB  255   0.315   4.074   1.078
   43MeO     HC  256   0.337   4.051   1.252
   43MeO      O  257   0.248   4.228   1.198
   43MeO      H  258   0.163   4.186   1.215
   44MeO      C  259   1.459   2.554   1.154
   44MeO     HA  260   1.553   2.529   1.106
   44MeO     HB  261   1.472   2.647   1.210
   44MeO     HC  262   1.384   2.572   1.076
   44MeO      O  263   1.418   2.449   1.239
   44MeO      H  264   1.407   2.372   1.184
   45MeO      C  265   0.342   0.500   2.762
   45MeO     HA  266   0.235   0.481   2.762
   45MeO     HB  267   0.379   0.484   2.660
   45MeO     HC  268   0.391   0.428   2.828
   45MeO      O  269   0.368   0.633   2.803
   45MeO      H  270   0.329   0.690   2.735
   46MeO      C  271   4.029   3.243   2.983
   46MeO     HA  272   4.096   3.169   2.938
   46MeO     HB  273   3.926   3.213   2.964
   46MeO     HC  274   4.047   3.244   3.091
   46MeO      O  275   4.055   3.371   2.928
   46MeO      H  276   4.147   3.392   2.948
   47MeO      C  277   1.652   0.784   0.251
   47MeO     HA  278   1.653   0.695   0.314
   47MeO     HB  279   1.666   0.753   0.148
   47MeO     HC  280   1.736   0.847   0.281
   47MeO      O  281   1.531   0.854   0.267
   47MeO      H  282   1.527   0.884   0.359
   48MeO      C  283   0.402   1.078   4.924
   48MeO     HA  284   0.354   1.169   0.034
   48MeO     HB  285   0.499   1.102   4.883
   48MeO     HC  286   0.416   1.012   0.084
   48MeO      O  287   0.321   1.015   4.827
   48MeO      H  288   0.236   0.997   4.868
   49MeO      C  289   1.763   0.576   4.063
   49MeO     HA  290   1.724   0.508   3.988
   49MeO     HB  291   1.806   0.662   4.012
   49MeO     HC  292   1.843   0.525   4.118
   49MeO      O  293   1.660   0.618   4.150
   49MeO      H  294   1.590   0.654   4.096
   50MeO      C  295   0.213   2.668   4.386
   50MeO     HA  296   0.181   2.667   4.282
   50MeO     HB  297   0.322   2.669   4.389
   50MeO     HC  298   0.176   2.759   4.432
   50MeO      O  299   0.162   2.554   4.453
   50MeO      H  300   0.066   2.563   4.453
   51MeO      C  301   4.295   1.123   0.955
   51MeO     HA  302   4.333   1.195   1.027
   51MeO     HB  303   4.298   1.024   1.000
   51MeO     HC  304   4.192   1.147   0.931
   51MeO      O  305   4.374   1.125   0.837
   51MeO      H  306   4.330   1.069   0.773
   52MeO      C  307   1.412   0.717   3.477
   52MeO     HA  308   1.323   0.711   3.539
   52MeO     HB  309   1.481   0.787   3.524
   52MeO     HC  310   1.459   0.619   3.474
   52MeO      O  311   1.380   0.761   3.348
   52MeO      H  312   1.343   0.850   3.357
   53MeO      C  313   4.820   0.070   0.572
   53MeO     HA  314   4.739   0.002   0.550
   53MeO     HB  315   4.827   0.081   0.680
   53MeO     HC  316   4.798   0.168   0.528
   53MeO      O  317   0.015   0.019   0.519
   53MeO      H  318   0.037   4.868   0.575
   54MeO      C  319   1.819   4.316   3.877
   54MeO     HA  320   1.772   4.410   3.905
   54MeO     HB  321   1.832   4.316   3.769
   54MeO     HC  322   1.753   4.234   3.905
   54MeO      O  323   1.944   4.304   3.941
   54MeO      H  324   1.996   4.382   3.919
   55MeO      C  325   4.188   3.174   3.885
   55MeO     HA  326   4.098   3.218   3.842
   55MeO     HB  327   4.201   3.213   3.986
   55MeO     HC  328   4.274   3.204   3.825
   55MeO      O  329   4.177   3.033   3.889
   55MeO      H  330   4.101   3.014   3.945
   56MeO      C  331   2.201   4.649   4.486
   56MeO     HA  332   2.165   4.590   4.571
   56MeO     HB  333   2.145   4.742   4.482
   56MeO     HC  334   2.180   4.592   4.395
   56MeO      O  335   2.339   4.673   4.498
   56MeO      H  336   2.380   4.588   4.509
   57MeO      C  337   0.528   2.693   4.868
   57MeO     HA  338   0.493   2.626   4.790
   57MeO     HB  339   0.538   2.636   0.035
   57MeO     HC  340   0.454   2.771   4.884
   57MeO      O  341   0.653   2.748   4.832
   57MeO      H  342   0.715   2.675   4.826
   58MeO      C  343   2.019   4.613   3.341
   58MeO     HA  344   1.987   4.600   3.444
   58MeO     HB  345   1.935   4.654   3.284
   58MeO     HC  346   2.101   4.684   3.339
   58MeO      O  347   2.060   4.490   3.285
   58MeO      H  348   2.087   4.509   3.195
   59MeO      C  349   0.741   3.308   3.939
   59MeO     HA  350   0.696   3.260   4.026
   59MeO     HB  351   0.662   3.333   3.868
   59MeO     HC  352   0.809   3.238   3.892
   59MeO      O  353   0.811   3.424   3.977
   59MeO      H  354   0.849   3.461   3.896
   60MeO      C  355   1.673   2.223   3.523
   60MeO     HA  356   1.721   2.156   3.594
   60MeO     HB  357   1.589   2.170   3.477
   60MeO     HC  358   1.745   2.248   3.445
   60MeO      O  359   1.628   2.340   3.588
   60MeO      H  360   1.562   2.313   3.652
   61MeO      C  361   4.921   1.165   0.569
   61MeO     HA  362   4.858   1.105   0.635
   61MeO     HB  363   0.071   1.100   0.524
   61MeO     HC  364   0.047   1.240   0.629
   61MeO      O  365   4.844   1.227   0.469
   61MeO      H  366   4.905   1.280   0.415
   62MeO      C  367   0.409   1.732   4.022
   62MeO     HA  368   0.489   1.732   4.096
   62MeO     HB  369   0.317   1.764   4.071
   62MeO     HC  370   0.434   1.805   3.945
   62MeO      O  371   0.394   1.603   3.966
   62MeO      H  372   0.377   1.543   4.039
   63MeO      C  373   2.123   1.791   1.900
   63MeO     HA  374   2.048   1.713   1.913
   63MeO     HB  375   2.218   1.754   1.941
   63MeO     HC  376   2.136   1.810   1.794
   63MeO      O  377   2.084   1.909   1.967
   63MeO      H  378   2.078   1.887   2.060
   64MeO      C  379   1.062   3.517   3.766
   64MeO     HA  380   1.080   3.537   3.872
   64MeO     HB  381   1.113   3.425   3.738
   64MeO     HC  382   1.105   3.599   3.708
   64MeO      O  383   0.924   3.506   3.740
   64MeO      H  384   0.914   3.479   3.648
   65MeO      C  385   0.181   4.859   2.088
   65MeO     HA  386   0.176   0.042   2.083
   65MeO     HB  387   0.176   4.819   1.986
   65MeO     HC  388   0.096   4.822   2.144
   65MeO      O  389   0.301   4.817   2.150
   65MeO      H  390   0.294   4.721   2.160
   66MeO      C  391   3.775   0.028   4.748
   66MeO     HA  392   3.830   0.106   4.696
   66MeO     HB  393   3.669   0.054   4.748
   66MeO     HC  394   3.787   4.859   4.694
   66MeO      O  395   3.822   0.015   4.880
   66MeO      H  396   3.762   4.879   0.000
   67MeO      C  397   2.450   1.863   2.918
   67MeO     HA  398   2.405   1.960   2.894
   67MeO     HB  399   2.541   1.852   2.859
   67MeO     HC  400   2.381   1.784   2.889
   67MeO      O  401   2.481   1.854   3.056
   67MeO      H  402   2.525   1.769   3.069
   68MeO      C  403   0.014   2.378   1.872
   68MeO     HA  404   0.025   2.273   1.846
   68MeO     HB  405   0.109   2.413   1.912
   68MeO     HC  406   4.917   2.434   1.782
   68MeO      O  407   4.837   2.394   1.968
   68MeO      H  408   4.756   2.358   1.930
   69MeO      C  409   4.679   1.775   4.148
   69MeO     HA  410   4.666   1.681   4.095
   69MeO     HB  411   4.693   1.854   4.075
   69MeO     HC  412   4.589   1.796   4.205
   69MeO      O  413   4.791   1.768   4.235
   69MeO      H  414   4.800   1.854   4.277
   70MeO      C  415   3.110   4.787   4.840
   70MeO     HA  416   3.100   4.679   4.829
   70MeO     HB  417   3.196   4.820   4.781
   70MeO     HC  418   3.021   4.834   4.799
   70MeO      O  419   3.127   4.822   0.050
   70MeO      H  420   3.050   4.789   0.098
   71MeO      C  421   4.518   3.307   1.926
   71MeO     HA  422   4.457   3.313   2.016
   71MeO     HB  423   4.578   3.216   1.930
   71MeO     HC  424   4.585   3.393   1.924
   71MeO      O  425   4.437   3.306   1.810
   71MeO      H  426   4.497   3.302   1.735
   72MeO      C  427   2.103   4.302   1.362
   72MeO     HA  428   2.168   4.325   1.278
   72MeO     HB  429   2.165   4.278   1.449
   72MeO     HC  430   2.043   4.389   1.385
   72MeO      O  431   2.020   4.192   1.330
   72MeO      H  432   2.078   4.118   1.309
   73MeO      C  433   1.623   3.575   2.437
   73MeO     HA  434   1.635   3.652   2.513
   73MeO     HB  435   1.631   3.623   2.339
   73MeO     HC  436   1.703   3.503   2.447
   73MeO      O  437   1.497   3.513   2.449
   73MeO      H  438   1.430   3.581   2.432
   74MeO      C  439   1.778   4.167   0.651
   74MeO     HA  440   1.839   4.246   0.697
   74MeO     HB  441   1.680   4.170   0.697
   74MeO     HC  442   1.768   4.188   0.545
   74MeO      O  443   1.838   4.041   0.673
   74MeO      H  444   1.839   4.027   0.768
   75MeO      C  445   3.255   0.633   2.391
   75MeO     HA  446   3.188   0.705   2.440
   75MeO     HB  447   3.313   0.686   2.316
   75MeO     HC  448   3.324   0.593   2.466
   75MeO      O  449   3.180   0.529   2.332
   75MeO      H  450   3.117   0.569   2.271
   76MeO      C  451   3.683   0.198   3.263
   76MeO     HA  452   3.759   0.240   3.328
   76MeO     HB  453   3.651   0.275   3.194
   76MeO     HC  454   3.727   0.117   3.205
   76MeO      O  455   3.573   0.151   3.339
   76MeO      H  456   3.536   0.227   3.384
   77MeO      C  457   2.359   3.476   0.007
   77MeO     HA  458   2.424   3.425   4.861
   77MeO     HB  459   2.410   3.478   0.103
   77MeO     HC  460   2.268   3.418   0.017
   77MeO      O  461   2.331   3.607   4.889
   77MeO      H  462   2.416   3.653   4.885
   78MeO      C  463   4.740   0.676   0.092
   78MeO     HA  464   4.756   0.636   4.917
   78MeO     HB  465   4.803   0.764   0.104
   78MeO     HC  466   4.771   0.600   0.164
   78MeO      O  467   4.604   0.709   0.111
   78MeO      H  468   4.553   0.628   0.097
   79MeO      C  469   0.446   0.812   3.506
   79MeO     HA  470   0.519   0.796   3.586
   79MeO     HB  471   0.483   0.764   3.416
   79MeO     HC  472   0.352   0.766   3.535
   79MeO      O  473   0.428   0.951   3.484
   79MeO      H  474   0.513   0.986   3.455
   80MeO      C  475   1.863   3.646   4.520
   80MeO     HA  476   1.934   3.635   4.438
   80MeO     HB  477   1.897   3.726   4.585
   80MeO     HC  478   1.766   3.674   4.479
   80MeO      O  479   1.852   3.525   4.592
   80MeO      H  480   1.783   3.537   4.657
   81MeO      C  481   2.470   3.874   3.103
   81MeO     HA  482   2.458   3.855   3.210
   81MeO     HB  483   2.455   3.981   3.086
   81MeO     HC  484   2.394   3.819   3.048
   81MeO      O  485   2.599   3.836   3.059
   81MeO      H  486   2.604   3.861   2.967
   82MeO      C  487   2.940   1.291   3.593
   82MeO     HA  488   3.013   1.355   3.642
   82MeO     HB  489   2.982   1.192   3.585
   82MeO     HC  490   2.921   1.330   3.493
   82MeO      O  491   2.820   1.288   3.668
   82MeO      H  492   2.844   1.289   3.762
   83MeO      C  493   0.233   1.818   1.976
   83MeO     HA  494   0.275   1.756   1.896
   83MeO     HB  495   0.247   1.922   1.948
   83MeO     HC  496   0.127   1.798   1.983
   83MeO      O  497   0.299   1.790   2.098
   83MeO      H  498   0.392   1.810   2.085
   84MeO      C  499   4.351   0.362   4.523
   84MeO     HA  500   4.348   0.356   4.414
   84MeO     HB  501   4.424   0.437   4.552
   84MeO     HC  502   4.253   0.394   4.558
   84MeO      O  503   4.385   0.236   4.578
   84MeO      H  504   4.320   0.173   4.545
   85MeO      C  505   3.017   3.704   3.431
   85MeO     HA  506   3.090   3.711   3.350
   85MeO     HB  507   2.965   3.799   3.439
   85MeO     HC  508   3.071   3.685   3.524
   85MeO      O  509   2.925   3.600   3.405
   85MeO      H  510   2.878   3.624   3.325
   86MeO      C  511   4.908   4.433   2.038
   86MeO     HA  512   4.896   4.524   2.096
   86MeO     HB  513   4.821   4.370   2.054
   86MeO     HC  514   4.912   4.460   1.932
   86MeO      O  515   0.100   4.365   2.074
   86MeO      H  516   0.107   4.288   2.017
   87MeO      C  517   1.372   2.523   0.391
   87MeO     HA  518   1.322   2.436   0.434
   87MeO     HB  519   1.306   2.566   0.315
   87MeO     HC  520   1.387   2.597   0.469
   87MeO      O  521   1.496   2.487   0.333
   87MeO      H  522   1.534   2.567   0.297
   88MeO      C  523   0.363   4.350   4.115
   88MeO     HA  524   0.441   4.284   4.078
   88MeO     HB  525   0.359   4.439   4.052
   88MeO     HC  526   0.389   4.381   4.216
   88MeO      O  527   0.239   4.283   4.115
   88MeO      H  528   0.249   4.207   4.172
   89MeO      C  529   0.439   0.390   4.626
   89MeO     HA  530   0.403   0.431   4.531
   89MeO     HB  531   0.463   0.285   4.611
   89MeO     HC  532   0.359   0.397   4.699
   89MeO      O  533   0.553   0.461   4.670
   89MeO      H  534   0.579   0.423   4.754
   90MeO      C  535   1.105   0.803   4.622
   90MeO     HA  536   1.060   0.723   4.681
   90MeO     HB  537   1.134   0.884   4.689
   90MeO     HC  538   1.031   0.841   4.552
   90MeO      O  539   1.219   0.755   4.552
   90MeO      H  540   1.254   0.831   4.504
   91MeO      C  541   2.281   3.818   0.421
   91MeO     HA  542   2.234   3.784   0.329
   91MeO     HB  543   2.219   3.787   0.505
   91MeO     HC  544   2.285   3.927   0.419
   91MeO      O  545   2.411   3.764   0.432
   91MeO      H  546   2.459   3.796   0.355
   92MeO      C  547   3.911   2.798   0.788
   92MeO     HA  548   3.841   2.802   0.705
   92MeO     HB  549   3.930   2.900   0.822
   92MeO     HC  550   3.866   2.742   0.869
   92MeO      O  551   4.032   2.738   0.746
   92MeO      H  552   4.068   2.793   0.675
   93MeO      C  553   2.948   1.677   0.807
   93MeO     HA  554   2.979   1.710   0.708
   93MeO     HB  555   2.839   1.688   0.814
   93MeO     HC  556   2.995   1.741   0.882
   93MeO      O  557   2.984   1.542   0.827
   93MeO      H  558   2.943   1.491   0.756
   94MeO      C  559   3.838   1.507   4.677
   94MeO     HA  560   3.901   1.585   4.634
   94MeO     HB  561   3.770   1.554   4.748
   94MeO     HC  562   3.779   1.462   4.598
   94MeO      O  563   3.918   1.410   4.741
   94MeO      H  564   3.961   1.454   4.816
   95MeO      C  565   4.881   3.762   1.257
   95MeO     HA  566   0.057   3.796   1.278
   95MeO     HB  567   4.865   3.767   1.149
   95MeO     HC  568   4.811   3.829   1.306
   95MeO      O  569   4.862   3.630   1.303
   95MeO      H  570   4.917   3.573   1.248
   96MeO      C  571   2.475   2.960   3.477
   96MeO     HA  572   2.420   2.880   3.428
   96MeO     HB  573   2.417   3.052   3.469
   96MeO     HC  574   2.487   2.935   3.583
   96MeO      O  575   2.602   2.977   3.416
   96MeO      H  576   2.647   3.046   3.466
   97MeO      C  577   2.463   2.382   1.541
   97MeO     HA  578   2.498   2.462   1.606
   97MeO     HB  579   2.459   2.290   1.599
   97MeO     HC  580   2.363   2.406   1.506
   97MeO      O  581   2.552   2.368   1.432
   97MeO      H  582   2.640   2.352   1.469
   98MeO      C  583   1.530   0.277   3.204
   98MeO     HA  584   1.462   0.357   3.176
   98MeO     HB  585   1.593   0.312   3.286
   98MeO     HC  586   1.472   0.192   3.239
   98MeO      O  587   1.610   0.241   3.094
   98MeO      H  588   1.659   0.320   3.067
   99MeO      C  589   0.687   0.154   0.460
   99MeO     HA  590   0.708   0.049   0.441
   99MeO     HB  591   0.594   0.181   0.410
   99MeO     HC  592   0.673   0.168   0.567
   99MeO      O  593   0.793   0.235   0.414
   99MeO      H  594   0.766   0.327   0.431
  100MeO      C  595   1.277   0.799   1.137
  100MeO     HA  596   1.299   0.831   1.238
  100MeO     HB  597   1.356   0.733   1.102
  100MeO     HC  598   1.275   0.887   1.072
  100MeO      O  599   1.151   0.734   1.132
  100MeO      H  600   1.137   0.709   1.040
  101MeO      C  601   0.755   0.603   0.377
  101MeO     HA  602   0.823   0.571   0.298
  101MeO     HB  603   0.667   0.648   0.331
  101MeO     HC  604   0.804   0.679   0.438
  101MeO      O  605   0.717   0.493   0.457
  101MeO      H  606   0.660   0.531   0.527
  102MeO      C  607   3.007   0.195   4.556
  102MeO     HA  608   2.962   0.096   4.556
  102MeO     HB  609   3.053   0.213   4.653
  102MeO     HC  610   2.929   0.269   4.540
  102MeO      O  611   3.105   0.205   4.454
  102MeO      H  612   3.060   0.189   4.369
  103MeO      C  613   0.502   4.433   1.501
  103MeO     HA  614   0.443   4.356   1.551
  103MeO     HB  615   0.463   4.448   1.401
  103MeO     HC  616   0.491   4.526   1.557
  103MeO      O  617   0.638   4.396   1.494
  103MeO      H  618   0.682   4.468   1.449
  104MeO      C  619   2.271   1.320   1.182
  104MeO     HA  620   2.192   1.251   1.210
  104MeO     HB  621   2.367   1.271   1.198
  104MeO     HC  622   2.265   1.407   1.247
  104MeO      O  623   2.256   1.358   1.047
  104MeO      H  624   2.169   1.400   1.039
  105MeO      C  625   3.630   3.406   0.396
  105MeO     HA  626   3.684   3.403   0.490
  105MeO     HB  627   3.670   3.488   0.336
  105MeO     HC  628   3.648   3.313   0.343
  105MeO      O  629   3.492   3.425   0.419
  105MeO      H  630   3.482   3.510   0.463
  106MeO      C  631   1.956   1.432   2.777
  106MeO     HA  632   1.935   1.436   2.884
  106MeO     HB  633   2.064   1.427   2.763
  106MeO     HC  634   1.919   1.524   2.732
  106MeO      O  635   1.894   1.320   2.717
  106MeO      H  636   1.914   1.325   2.623
  107MeO      C  637   4.732   3.574   3.544
  107MeO     HA  638   4.754   3.483   3.488
  107MeO     HB  639   4.762   3.560   3.648
  107MeO     HC  640   4.624   3.592   3.541
  107MeO      O  641   4.802   3.684   3.488
  107MeO      H  642   4.895   3.664   3.494
  108MeO      C  643   4.828   3.048   2.205
  108MeO     HA  644   4.808   3.124   2.281
  108MeO     HB  645   4.913   3.080   2.145
  108MeO     HC  646   4.740   3.039   2.140
  108MeO      O  647   4.855   2.924   2.267
  108MeO      H  648   0.008   2.938   2.321
  109MeO      C  649   1.232   2.699   4.528
  109MeO     HA  650   1.141   2.650   4.494
  109MeO     HB  651   1.296   2.717   4.443
  109MeO     HC  652   1.204   2.795   4.572
  109MeO      O  653   1.297   2.618   4.624
  109MeO      H  654   1.235   2.610   4.698
  110MeO      C  655   0.365   0.410   1.040
  110MeO     HA  656   0.443   0.375   1.108
  110MeO     HB  657   0.269   0.408   1.092
  110MeO     HC  658   0.387   0.514   1.013
  110MeO      O  659   0.360   0.329   0.925
  110MeO      H  660   0.289   0.364   0.869
  111MeO      C  661   2.819   3.567   2.661
  111MeO     HA  662   2.911   3.508   2.666
  111MeO     HB  663   2.817   3.637   2.745
  111MeO     HC  664   2.734   3.500   2.670
  111MeO      O  665   2.812   3.639   2.540
  111MeO      H  666   2.729   3.688   2.543
  112MeO      C  667   0.532   2.829   4.191
  112MeO     HA  668   0.603   2.907   4.215
  112MeO     HB  669   0.579   2.732   4.210
  112MeO     HC  670   0.446   2.839   4.258
  112MeO      O  671   0.491   2.837   4.056
  112MeO      H  672   0.429   2.765   4.041
  113MeO      C  673   3.257   0.158   2.605
  113MeO     HA  674   3.335   0.232   2.586
  113MeO     HB  675   3.174   0.208   2.654
  113MeO     HC  676   3.223   0.118   2.510
  113MeO      O  677   3.307   0.055   2.687
  113MeO      H  678   3.335   0.096   2.770
  114MeO      C  679   2.835   4.905   1.743
  114MeO     HA  680   2.800   4.853   1.832
  114MeO     HB  681   2.788   0.078   1.740
  114MeO     HC  682   2.943   4.918   1.750
  114MeO      O  683   2.802   4.832   1.627
  114MeO      H  684   2.706   4.821   1.626
  115MeO      C  685   1.013   3.897   2.372
  115MeO     HA  686   1.015   4.003   2.344
  115MeO     HB  687   1.034   3.837   2.284
  115MeO     HC  688   0.912   3.873   2.407
  115MeO      O  689   1.107   3.872   2.474
  115MeO      H  690   1.081   3.926   2.550
  116MeO      C  691   3.361   3.588   1.020
  116MeO     HA  692   3.457   3.588   0.968
  116MeO     HB  693   3.327   3.485   1.030
  116MeO     HC  694   3.289   3.643   0.959
  116MeO      O  695   3.375   3.649   1.147
  116MeO      H  696   3.400   3.741   1.132
  117MeO      C  697   4.626   1.175   4.617
  117MeO     HA  698   4.538   1.216   4.568
  117MeO     HB  699   4.610   1.178   4.725
  117MeO     HC  700   4.711   1.239   4.593
  117MeO      O  701   4.650   1.043   4.574
  117MeO      H  702   4.571   0.991   4.595
  118MeO      C  703   0.356   1.380   1.376
  118MeO     HA  704   0.298   1.461   1.333
  118MeO     HB  705   0.315   1.285   1.340
  118MeO     HC  706   0.345   1.382   1.484
  118MeO      O  707   0.492   1.390   1.340
  118MeO      H  708   0.533   1.307   1.369
  119MeO      C  709   3.395   0.045   4.573
  119MeO     HA  710   3.458   4.888   4.606
  119MeO     HB  711   3.374   0.110   4.658
  119MeO     HC  712   3.448   0.102   4.497
  119MeO      O  713   3.274   4.921   4.519
  119MeO      H  714   3.220   0.072   4.495
  120MeO      C  715   2.005   2.738   1.674
  120MeO     HA  716   2.104   2.736   1.629
  120MeO     HB  717   1.974   2.636   1.696
  120MeO     HC  718   2.010   2.794   1.767
  120MeO      O  719   1.913   2.800   1.586
  120MeO      H  720   1.830   2.810   1.634
  121MeO      C  721   0.209   3.885   2.074
  121MeO     HA  722   0.268   3.902   2.165
  121MeO     HB  723   0.202   3.778   2.058
  121MeO     HC  724   0.109   3.924   2.091
  121MeO      O  725   0.270   3.948   1.964
  121MeO      H  726   0.360   3.915   1.959
  122MeO      C  727   0.994   3.642   1.587
  122MeO     HA  728   0.906   3.644   1.651
  122MeO     HB  729   0.966   3.600   1.491
  122MeO     HC  730   1.069   3.577   1.633
  122MeO      O  731   1.046   3.772   1.571
  122MeO      H  732   0.978   3.825   1.528
  123MeO      C  733   1.898   4.616   4.718
  123MeO     HA  734   1.857   4.561   4.634
  123MeO     HB  735   1.950   4.705   4.680
  123MeO     HC  736   1.972   4.554   4.769
  123MeO      O  737   1.796   4.655   4.807
  123MeO      H  738   1.839   4.697   4.882
  124MeO      C  739   0.758   1.296   3.658
  124MeO     HA  740   0.708   1.338   3.571
  124MeO     HB  741   0.840   1.361   3.686
  124MeO     HC  742   0.687   1.293   3.741
  124MeO      O  743   0.806   1.166   3.630
  124MeO      H  744   0.849   1.134   3.710
  125MeO      C  745   1.024   2.034   3.433
  125MeO     HA  746   0.991   2.065   3.532
  125MeO     HB  747   1.127   1.998   3.441
  125MeO     HC  748   0.962   1.951   3.399
  125MeO      O  749   1.018   2.141   3.341
  125MeO      H  750   1.052   2.108   3.258
  126MeO      C  751   1.440   1.016   4.421
  126MeO     HA  752   1.448   1.114   4.467
  126MeO     HB  753   1.481   1.022   4.320
  126MeO     HC  754   1.499   0.945   4.478
  126MeO      O  755   1.305   0.976   4.415
  126MeO      H  756   1.257   1.042   4.363
  127MeO      C  757   0.975   2.283   2.000
  127MeO     HA  758   1.020   2.286   1.900
  127MeO     HB  759   1.040   2.338   2.068
  127MeO     HC  760   0.878   2.332   1.996
  127MeO      O  761   0.963   2.149   2.043
  127MeO      H  762   1.052   2.114   2.046
  128MeO      C  763   1.243   1.864   0.923
  128MeO     HA  764   1.333   1.899   0.973
  128MeO     HB  765   1.198   1.948   0.870
  128MeO     HC  766   1.173   1.828   0.998
  128MeO      O  767   1.276   1.761   0.833
  128MeO      H  768   1.310   1.687   0.886
  129MeO      C  769   1.464   0.867   3.996
  129MeO     HA  770   1.417   0.900   4.089
  129MeO     HB  771   1.409   0.910   3.912
  129MeO     HC  772   1.566   0.905   3.993
  129MeO      O  773   1.463   0.726   3.986
  129MeO      H  774   1.501   0.704   3.900
  130MeO      C  775   4.585   0.268   0.276
  130MeO     HA  776   4.577   0.257   0.168
  130MeO     HB  777   4.669   0.334   0.297
  130MeO     HC  778   4.494   0.316   0.313
  130MeO      O  779   4.604   0.142   0.337
  130MeO      H  780   4.683   0.104   0.298
  131MeO      C  781   4.485   3.725   4.413
  131MeO     HA  782   4.517   3.633   4.461
  131MeO     HB  783   4.402   3.768   4.470
  131MeO     HC  784   4.568   3.796   4.415
  131MeO      O  785   4.445   3.701   4.280
  131MeO      H  786   4.438   3.787   4.238
  132MeO      C  787   2.154   3.889   2.091
  132MeO     HA  788   2.187   3.956   2.011
  132MeO     HB  789   2.165   3.786   2.058
  132MeO     HC  790   2.049   3.909   2.111
  132MeO      O  791   2.231   3.911   2.208
  132MeO      H  792   2.193   3.855   2.277
  133MeO      C  793   2.645   0.554   0.034
  133MeO     HA  794   2.538   0.568   0.051
  133MeO     HB  795   2.694   0.538   0.129
  133MeO     HC  796   2.684   0.646   4.915
  133MeO      O  797   2.666   0.445   4.872
  133MeO      H  798   2.619   0.467   4.790
  134MeO      C  799   0.113   1.840   1.617
  134MeO     HA  800   0.049   1.784   1.548
  134MeO     HB  801   0.188   1.773   1.658
  134MeO     HC  802   0.163   1.919   1.561
  134MeO      O  803   0.035   1.896   1.720
  134MeO      H  804   4.895   1.953   1.677
  135MeO      C  805   1.658   3.358   0.207
  135MeO     HA  806   1.753   3.357   0.261
  135MeO     HB  807   1.592   3.430   0.254
  135MeO     HC  808   1.677   3.390   0.104
  135MeO      O  809   1.599   3.229   0.209
  135MeO      H  810   1.516   3.235   0.159
  136MeO      C  811   0.797   1.649   2.219
  136MeO     HA  812   0.853   1.564   2.260
  136MeO     HB  813   0.770   1.715   2.302
  136MeO     HC  814   0.863   1.704   2.151
  136MeO      O  815   0.681   1.605   2.152
  136MeO      H  816   0.637   1.684   2.119
  137MeO      C  817   1.329   0.007   1.334
  137MeO     HA  818   1.305   0.113   1.344
  137MeO     HB  819   1.238   4.879   1.310
  137MeO     HC  820   1.367   4.897   1.430
  137MeO      O  821   1.425   4.914   1.232
  137MeO      H  822   1.388   0.024   1.151
  138MeO      C  823   3.320   2.359   3.479
  138MeO     HA  824   3.276   2.412   3.564
  138MeO     HB  825   3.417   2.320   3.509
  138MeO     HC  826   3.335   2.430   3.398
  138MeO      O  827   3.236   2.254   3.437
  138MeO      H  828   3.279   2.213   3.361
  139MeO      C  829   1.991   0.698   1.841
  139MeO     HA  830   1.973   0.657   1.741
  139MeO     HB  831   2.016   0.803   1.831
  139MeO     HC  832   1.898   0.690   1.898
  139MeO      O  833   2.095   0.628   1.906
  139MeO      H  834   2.104   0.667   1.994
  140MeO      C  835   0.917   3.710   0.523
  140MeO     HA  836   0.860   3.659   0.445
  140MeO     HB  837   0.935   3.639   0.604
  140MeO     HC  838   1.013   3.740   0.482
  140MeO      O  839   0.846   3.822   0.571
  140MeO      H  840   0.902   3.864   0.637
  141MeO      C  841   3.554   2.350   2.466
  141MeO     HA  842   3.450   2.378   2.482
  141MeO     HB  843   3.616   2.408   2.535
  141MeO     HC  844   3.565   2.244   2.489
  141MeO      O  845   3.591   2.378   2.332
  141MeO      H  846   3.570   2.471   2.317
  142MeO      C  847   1.698   2.984   1.763
  142MeO     HA  848   1.619   3.052   1.731
  142MeO     HB  849   1.794   3.024   1.731
  142MeO     HC  850   1.696   2.980   1.872
  142MeO      O  851   1.676   2.855   1.709
  142MeO      H  852   1.595   2.822   1.750
  143MeO      C  853   4.417   0.428   4.876
  143MeO     HA  854   4.320   0.461   4.839
  143MeO     HB  855   4.493   0.455   4.803
  143MeO     HC  856   4.415   0.320   4.886
  143MeO      O  857   4.444   0.488   0.076
  143MeO      H  858   4.374   0.460   0.136
  144MeO      C  859   0.095   1.595   2.307
  144MeO     HA  860   0.158   1.634   2.387
  144MeO     HB  861   0.020   1.670   2.283
  144MeO     HC  862   0.044   1.505   2.342
  144MeO      O  863   0.173   1.566   2.193
  144MeO      H  864   0.214   1.648   2.164
  145MeO      C  865   0.979   3.298   0.426
  145MeO     HA  866   0.953   3.374   0.351
  145MeO     HB  867   0.917   3.210   0.410
  145MeO     HC  868   1.084   3.270   0.412
  145MeO      O  869   0.958   3.350   0.556
  145MeO      H  870   0.865   3.372   0.562
  146MeO      C  871   3.408   0.597   3.214
  146MeO     HA  872   3.373   0.663   3.293
  146MeO     HB  873   3.431   0.656   3.126
  146MeO     HC  874   3.327   0.528   3.189
  146MeO      O  875   3.522   0.524   3.257
  146MeO      H  876   3.495   0.474   3.335
  147MeO      C  877   0.074   4.505   3.916
  147MeO     HA  878   0.088   4.566   4.005
  147MeO     HB  879   4.924   4.552   3.853
  147MeO     HC  880   0.168   4.501   3.861
  147MeO      O  881   0.034   4.375   3.952
  147MeO      H  882   0.104   4.338   4.006
  148MeO      C  883   1.682   0.596   3.086
  148MeO     HA  884   1.664   0.666   3.005
  148MeO     HB  885   1.748   0.644   3.159
  148MeO     HC  886   1.587   0.574   3.135
  148MeO      O  887   1.742   0.478   3.037
  148MeO      H  888   1.826   0.505   2.997
  149MeO      C  889   4.619   3.049   1.112
  149MeO     HA  890   4.527   3.096   1.147
  149MeO     HB  891   4.662   3.111   1.033
  149MeO     HC  892   4.594   2.952   1.069
  149MeO      O  893   4.710   3.034   1.219
  149MeO      H  894   4.664   2.983   1.287
  150MeO      C  895   4.792   2.942   4.648
  150MeO     HA  896   4.748   3.027   4.597
  150MeO     HB  897   4.713   2.871   4.671
  150MeO     HC  898   4.863   2.894   4.580
  150MeO      O  899   4.856   2.984   4.766
  150MeO      H  900   4.789   3.025   4.821
  151MeO      C  901   0.138   1.994   3.163
  151MeO     HA  902   0.140   1.949   3.262
  151MeO     HB  903   0.143   1.914   3.089
  151MeO     HC  904   0.044   2.048   3.151
  151MeO      O  905   0.248   2.081   3.147
  151MeO      H  906   0.328   2.026   3.154
  152MeO      C  907   2.278   0.355   1.571
  152MeO     HA  908   2.341   0.323   1.488
  152MeO     HB  909   2.334   0.427   1.631
  152MeO     HC  910   2.190   0.405   1.531
  152MeO      O  911   2.240   0.245   1.650
  152MeO      H  912   2.186   0.278   1.722
  153MeO      C  913   4.046   1.832   4.493
  153MeO     HA  914   4.001   1.869   4.401
  153MeO     HB  915   3.967   1.818   4.567
  153MeO     HC  916   4.115   1.907   4.531
  153MeO      O  917   4.114   1.710   4.470
  153MeO      H  918   4.143   1.678   4.556
  154MeO      C  919   4.764   0.537   1.574
  154MeO     HA  920   4.869   0.523   1.548
  154MeO     HB  921   4.747   0.643   1.591
  154MeO     HC  922   4.703   0.506   1.489
  154MeO      O  923   4.731   0.462   1.688
  154MeO      H  924   4.638   0.481   1.709
  155MeO      C  925   2.985   2.470   1.814
  155MeO     HA  926   2.891   2.458   1.868
  155MeO     HB  927   3.051   2.535   1.872
  155MeO     HC  928   3.033   2.372   1.805
  155MeO      O  929   2.962   2.525   1.686
  155MeO      H  930   3.049   2.531   1.642
  156MeO      C  931   2.127   2.532   2.499
  156MeO     HA  932   2.110   2.425   2.487
  156MeO     HB  933   2.119   2.556   2.605
  156MeO     HC  934   2.048   2.585   2.446
  156MeO      O  935   2.253   2.568   2.448
  156MeO      H  936   2.253   2.545   2.355
  157MeO      C  937   3.896   0.129   4.104
  157MeO     HA  938   3.986   0.067   4.105
  157MeO     HB  939   3.902   0.200   4.187
  157MeO     HC  940   3.809   0.065   4.119
  157MeO      O  941   3.886   0.198   3.982
  157MeO      H  942   3.964   0.254   3.975
  158MeO      C  943   3.832   3.388   2.407
  158MeO     HA  944   3.746   3.398   2.341
  158MeO     HB  945   3.853   3.485   2.452
  158MeO     HC  946   3.806   3.318   2.487
  158MeO      O  947   3.945   3.342   2.335
  158MeO      H  948   3.962   3.407   2.265
  159MeO      C  949   1.895   1.374   1.339
  159MeO     HA  950   1.880   1.277   1.291
  159MeO     HB  951   1.814   1.441   1.309
  159MeO     HC  952   1.989   1.417   1.303
  159MeO      O  953   1.899   1.361   1.479
  159MeO      H  954   1.915   1.449   1.516
  160MeO      C  955   4.063   2.161   2.229
  160MeO     HA  956   4.055   2.252   2.289
  160MeO     HB  957   4.167   2.150   2.197
  160MeO     HC  958   4.038   2.076   2.292
  160MeO      O  959   3.977   2.168   2.117
  160MeO      H  960   3.887   2.178   2.151
  161MeO      C  961   2.742   1.535   4.566
  161MeO     HA  962   2.665   1.459   4.568
  161MeO     HB  963   2.734   1.591   4.473
  161MeO     HC  964   2.725   1.604   4.649
  161MeO      O  965   2.871   1.477   4.578
  161MeO      H  966   2.934   1.548   4.568
  162MeO      C  967   4.791   1.870   3.374
  162MeO     HA  968   4.772   1.897   3.270
  162MeO     HB  969   4.890   1.825   3.379
  162MeO     HC  970   4.718   1.796   3.405
  162MeO      O  971   4.785   1.984   3.458
  162MeO      H  972   4.791   1.952   3.548
  163MeO      C  973   1.595   0.316   1.346
  163MeO     HA  974   1.696   0.289   1.314
  163MeO     HB  975   1.536   0.224   1.353
  163MeO     HC  976   1.550   0.380   1.270
  163MeO      O  977   1.598   0.381   1.471
  163MeO      H  978   1.637   0.319   1.534
  164MeO      C  979   1.823   2.620   3.615
  164MeO     HA  980   1.854   2.569   3.706
  164MeO     HB  981   1.728   2.669   3.634
  164MeO     HC  982   1.897   2.697   3.591
  164MeO      O  983   1.811   2.529   3.509
  164MeO      H  984   1.744   2.464   3.534
  165MeO      C  985   4.072   2.645   2.828
  165MeO     HA  986   3.977   2.633   2.777
  165MeO     HB  987   4.152   2.634   2.755
  165MeO     HC  988   4.082   2.567   2.903
  165MeO      O  989   4.078   2.772   2.890
  165MeO      H  990   4.006   2.776   2.953
  166MeO      C  991   0.218   4.561   4.891
  166MeO     HA  992   0.281   4.642   0.002
  166MeO     HB  993   0.121   4.567   0.015
  166MeO     HC  994   0.265   4.466   4.919
  166MeO      O  995   0.204   4.570   4.751
  166MeO      H  996   0.294   4.566   4.715
  167MeO      C  997   2.456   0.742   4.250
  167MeO     HA  998   2.526   0.775   4.326
  167MeO     HB  999   2.397   0.827   4.217
  167MeO     HC 1000   2.512   0.703   4.166
  167MeO      O 1001   2.371   0.642   4.303
  167MeO      H 1002   2.426   0.568   4.330
  168MeO      C 1003   1.747   1.477   3.868
  168MeO     HA 1004   1.842   1.442   3.909
  168MeO     HB 1005   1.703   1.396   3.809
  168MeO     HC 1006   1.680   1.499   3.952
  168MeO      O 1007   1.767   1.591   3.788
  168MeO      H 1008   1.836   1.568   3.725
  169MeO      C 1009   2.520   2.769   2.524
  169MeO     HA 1010   2.607   2.810   2.576
  169MeO     HB 1011   2.554   2.722   2.432
  169MeO     HC 1012   2.454   2.851   2.498
  169MeO      O 1013   2.453   2.674   2.605
  169MeO      H 1014   2.381   2.639   2.552
  170MeO      C 1015   3.469   3.721   0.146
  170MeO     HA 1016   3.481   3.650   0.228
  170MeO     HB 1017   3.448   3.666   0.055
  170MeO     HC 1018   3.563   3.776   0.133
  170MeO      O 1019   3.364   3.812   0.174
  170MeO      H 1020   3.361   3.874   0.101
  171MeO      C 1021   2.567   0.033   2.244
  171MeO     HA 1022   2.636   0.088   2.181
  171MeO     HB 1023   2.588   4.852   2.234
  171MeO     HC 1024   2.465   0.051   2.208
  171MeO      O 1025   2.580   0.074   2.379
  171MeO      H 1026   2.563   0.169   2.381
  172MeO      C 1027   4.524   2.711   3.700
  172MeO     HA 1028   4.598   2.632   3.688
  172MeO     HB 1029   4.535   2.753   3.800
  172MeO     HC 1030   4.546   2.789   3.627
  172MeO      O 1031   4.394   2.660   3.681
  172MeO      H 1032   4.335   2.737   3.676
  173MeO      C 1033   4.281   4.842   1.558
  173MeO     HA 1034   4.384   4.817   1.586
  173MeO     HB 1035   4.217   4.757   1.579
  173MeO     HC 1036   4.249   0.001   1.618
  173MeO      O 1037   4.275   4.876   1.421
  173MeO      H 1038   4.332   0.027   1.409
  174MeO      C 1039   0.745   3.273   0.110
  174MeO     HA 1040   0.763   3.264   0.217
  174MeO     HB 1041   0.660   3.210   0.084
  174MeO     HC 1042   0.833   3.236   0.057
  174MeO      O 1043   0.720   3.408   0.074
  174MeO      H 1044   0.692   3.406   4.907
  175MeO      C 1045   0.981   4.524   2.729
  175MeO     HA 1046   0.956   4.419   2.714
  175MeO     HB 1047   0.918   4.584   2.664
  175MeO     HC 1048   0.959   4.550   2.833
  175MeO      O 1049   1.117   4.545   2.700
  175MeO      H 1050   1.133   4.505   2.613
  176MeO      C 1051   4.760   3.596   0.380
  176MeO     HA 1052   4.810   3.689   0.355
  176MeO     HB 1053   4.708   3.560   0.292
  176MeO     HC 1054   4.687   3.616   0.458
  176MeO      O 1055   4.854   3.500   0.424
  176MeO      H 1056   4.898   3.537   0.501
  177MeO      C 1057   1.192   2.959   3.976
  177MeO     HA 1058   1.181   2.864   3.923
  177MeO     HB 1059   1.173   3.040   3.906
  177MeO     HC 1060   1.294   2.967   4.012
  177MeO      O 1061   1.101   2.966   4.084
  177MeO      H 1062   1.114   3.052   4.127
  178MeO      C 1063   0.672   1.909   2.531
  178MeO     HA 1064   0.607   1.858   2.460
  178MeO     HB 1065   0.612   1.941   2.616
  178MeO     HC 1066   0.714   1.997   2.483
  178MeO      O 1067   0.775   1.823   2.574
  178MeO      H 1068   0.831   1.874   2.634
  179MeO      C 1069   3.135   1.612   2.025
  179MeO     HA 1070   3.077   1.523   2.046
  179MeO     HB 1071   3.237   1.582   2.000
  179MeO     HC 1072   3.139   1.674   2.114
  179MeO      O 1073   3.078   1.683   1.917
  179MeO      H 1074   3.079   1.623   1.841
  180MeO      C 1075   4.113   0.980   0.613
  180MeO     HA 1076   4.057   1.038   0.687
  180MeO     HB 1077   4.101   1.027   0.516
  180MeO     HC 1078   4.069   0.880   0.608
  180MeO      O 1079   4.249   0.973   0.647
  180MeO      H 1080   4.292   0.918   0.580
  181MeO      C 1081   1.344   0.105   2.519
  181MeO     HA 1082   1.391   0.179   2.454
  181MeO     HB 1083   1.260   0.060   2.466
  181MeO     HC 1084   1.306   0.154   2.608
  181MeO      O 1085   1.437   0.005   2.555
  181MeO      H 1086   1.390   4.870   2.614
  182MeO      C 1087   1.980   0.537   2.582
  182MeO     HA 1088   1.928   0.579   2.496
  182MeO     HB 1089   1.916   0.464   2.630
  182MeO     HC 1090   2.001   0.618   2.652
  182MeO      O 1091   2.101   0.476   2.540
  182MeO      H 1092   2.077   0.408   2.475
  183MeO      C 1093   2.061   0.136   0.753
  183MeO     HA 1094   1.961   0.126   0.710
  183MeO     HB 1095   2.113   0.217   0.701
  183MeO     HC 1096   2.115   0.043   0.735
  183MeO      O 1097   2.053   0.162   0.892
  183MeO      H 1098   1.989   0.098   0.927
  184MeO      C 1099   3.844   4.559   4.705
  184MeO     HA 1100   3.833   4.458   4.744
  184MeO     HB 1101   3.752   4.614   4.724
  184MeO     HC 1102   3.926   4.608   4.759
  184MeO      O 1103   3.871   4.555   4.567
  184MeO      H 1104   3.795   4.514   4.524
  185MeO      C 1105   0.945   2.832   3.552
  185MeO     HA 1106   0.914   2.777   3.641
  185MeO     HB 1107   0.909   2.778   3.464
  185MeO     HC 1108   0.898   2.930   3.554
  185MeO      O 1109   1.085   2.843   3.548
  185MeO      H 1110   1.120   2.754   3.550
  186MeO      C 1111   2.687   3.810   1.034
  186MeO     HA 1112   2.693   3.763   0.936
  186MeO     HB 1113   2.593   3.780   1.081
  186MeO     HC 1114   2.770   3.775   1.095
  186MeO      O 1115   2.691   3.951   1.020
  186MeO      H 1116   2.616   3.975   0.965
  187MeO      C 1117   0.110   4.435   0.351
  187MeO     HA 1118   0.030   4.499   0.388
  187MeO     HB 1119   0.119   4.450   0.243
  187MeO     HC 1120   0.084   4.331   0.369
  187MeO      O 1121   0.232   4.467   0.415
  187MeO      H 1122   0.252   4.559   0.393
  188MeO      C 1123   0.571   0.869   4.166
  188MeO     HA 1124   0.531   0.920   4.079
  188MeO     HB 1125   0.660   0.815   4.137
  188MeO     HC 1126   0.497   0.797   4.201
  188MeO      O 1127   0.600   0.961   4.269
  188MeO      H 1128   0.633   0.908   4.343
  189MeO      C 1129   1.415   4.691   2.774
  189MeO     HA 1130   1.390   4.651   2.873
  189MeO     HB 1131   1.448   4.608   2.712
  189MeO     HC 1132   1.496   4.762   2.785
  189MeO      O 1133   1.302   4.753   2.717
  189MeO      H 1134   1.232   4.686   2.712
  190MeO      C 1135   2.494   2.242   4.643
  190MeO     HA 1136   2.595   2.277   4.621
  190MeO     HB 1137   2.449   2.309   4.716
  190MeO     HC 1138   2.500   2.142   4.686
  190MeO      O 1139   2.417   2.239   4.524
  190MeO      H 1140   2.419   2.327   4.486
  191MeO      C 1141   2.080   0.902   3.996
  191MeO     HA 1142   2.169   0.919   4.057
  191MeO     HB 1143   2.033   0.810   4.028
  191MeO     HC 1144   2.011   0.985   4.014
  191MeO      O 1145   2.116   0.897   3.859
  191MeO      H 1146   2.151   0.985   3.838
  192MeO      C 1147   4.108   2.461   0.113
  192MeO     HA 1148   4.108   2.374   0.178
  192MeO     HB 1149   4.006   2.478   0.078
  192MeO     HC 1150   4.171   2.440   0.026
  192MeO      O 1151   4.156   2.575   0.181
  192MeO      H 1152   4.153   2.648   0.119
  193MeO      C 1153   0.107   0.192   2.705
  193MeO     HA 1154   0.106   0.203   2.596
  193MeO     HB 1155   0.058   0.099   2.732
  193MeO     HC 1156   0.051   0.275   2.748
  193MeO      O 1157   0.240   0.193   2.753
  193MeO      H 1158   0.235   0.184   2.849
  194MeO      C 1159   1.457   2.780   1.970
  194MeO     HA 1160   1.546   2.835   1.999
  194MeO     HB 1161   1.370   2.832   2.010
  194MeO     HC 1162   1.461   2.680   2.014
  194MeO      O 1163   1.447   2.770   1.829
  194MeO      H 1164   1.367   2.720   1.811
  195MeO      C 1165   2.846   3.048   2.164
  195MeO     HA 1166   2.811   3.139   2.116
  195MeO     HB 1167   2.767   2.973   2.157
  195MeO     HC 1168   2.865   3.069   2.269
  195MeO      O 1169   2.965   3.002   2.102
  195MeO      H 1170   3.031   3.070   2.112
  196MeO      C 1171   2.611   3.805   4.783
  196MeO     HA 1172   2.632   3.746   4.694
  196MeO     HB 1173   2.698   3.867   4.804
  196MeO     HC 1174   2.526   3.870   4.761
  196MeO      O 1175   2.583   3.721   4.893
  196MeO      H 1176   2.664   3.672   4.912
  197MeO      C 1177   0.816   4.462   3.787
  197MeO     HA 1178   0.712   4.494   3.790
  197MeO     HB 1179   0.846   4.453   3.682
  197MeO     HC 1180   0.823   4.363   3.833
  197MeO      O 1181   0.899   4.553   3.855
  197MeO      H 1182   0.989   4.519   3.850
  198MeO      C 1183   4.519   2.762   3.315
  198MeO     HA 1184   4.576   2.751   3.223
  198MeO     HB 1185   4.551   2.685   3.385
  198MeO     HC 1186   4.414   2.746   3.292
  198MeO      O 1187   4.539   2.890   3.369
  198MeO      H 1188   4.633   2.898   3.390
  199MeO      C 1189   4.401   3.239   0.703
  199MeO     HA 1190   4.293   3.239   0.712
  199MeO     HB 1191   4.433   3.338   0.668
  199MeO     HC 1192   4.430   3.165   0.628
  199MeO      O 1193   4.462   3.210   0.827
  199MeO      H 1194   4.557   3.213   0.813
  200MeO      C 1195   2.092   2.303   3.523
  200MeO     HA 1196   2.180   2.332   3.580
  200MeO     HB 1197   2.043   2.394   3.488
  200MeO     HC 1198   2.023   2.250   3.590
  200MeO      O 1199   2.129   2.222   3.414
  200MeO      H 1200   2.180   2.277   3.354
  201MeO      C 1201   3.491   1.255   2.172
  201MeO     HA 1202   3.507   1.361   2.155
  201MeO     HB 1203   3.487   1.204   2.075
  201MeO     HC 1204   3.576   1.215   2.227
  201MeO      O 1205   3.372   1.232   2.244
  201MeO      H 1206   3.362   1.136   2.252
  202MeO      C 1207   2.295   0.655   2.757
  202MeO     HA 1208   2.204   0.712   2.774
  202MeO     HB 1209   2.380   0.711   2.798
  202MeO     HC 1210   2.287   0.561   2.811
  202MeO      O 1211   2.313   0.630   2.619
  202MeO      H 1212   2.236   0.580   2.590
  203MeO      C 1213   4.437   3.684   1.841
  203MeO     HA 1214   4.437   3.675   1.950
  203MeO     HB 1215   4.355   3.623   1.802
  203MeO     HC 1216   4.531   3.644   1.803
  203MeO      O 1217   4.421   3.819   1.804
  203MeO      H 1218   4.337   3.849   1.841
  204MeO      C 1219   1.777   2.365   2.679
  204MeO     HA 1220   1.763   2.397   2.782
  204MeO     HB 1221   1.682   2.329   2.640
  204MeO     HC 1222   1.849   2.283   2.678
  204MeO      O 1223   1.823   2.472   2.600
  204MeO      H 1224   1.763   2.546   2.615
  205MeO      C 1225   0.930   3.851   3.804
  205MeO     HA 1226   0.996   3.840   3.718
  205MeO     HB 1227   0.827   3.843   3.770
  205MeO     HC 1228   0.950   3.769   3.874
  205MeO      O 1229   0.951   3.976   3.867
  205MeO      H 1230   0.933   4.043   3.800
  206MeO      C 1231   2.011   3.748   4.914
  206MeO     HA 1232   1.992   3.679   4.832
  206MeO     HB 1233   1.916   3.776   0.034
  206MeO     HC 1234   2.058   3.838   4.873
  206MeO      O 1235   2.097   3.688   0.083
  206MeO      H 1236   2.178   3.664   0.038
  207MeO      C 1237   0.514   1.382   1.004
  207MeO     HA 1238   0.457   1.291   1.023
  207MeO     HB 1239   0.618   1.364   1.030
  207MeO     HC 1240   0.508   1.404   0.897
  207MeO      O 1241   0.462   1.488   1.080
  207MeO      H 1242   0.475   1.464   1.173
  208MeO      C 1243   2.639   2.275   4.239
  208MeO     HA 1244   2.696   2.356   4.192
  208MeO     HB 1245   2.545   2.264   4.186
  208MeO     HC 1246   2.619   2.303   4.342
  208MeO      O 1247   2.713   2.155   4.235
  208MeO      H 1248   2.789   2.167   4.292
  209MeO      C 1249   2.427   3.201   0.550
  209MeO     HA 1250   2.434   3.108   0.494
  209MeO     HB 1251   2.519   3.215   0.606
  209MeO     HC 1252   2.345   3.192   0.621
  209MeO      O 1253   2.405   3.310   0.463
  209MeO      H 1254   2.398   3.390   0.516
  210MeO      C 1255   3.671   4.682   0.675
  210MeO     HA 1256   3.717   4.585   0.658
  210MeO     HB 1257   3.746   4.748   0.720
  210MeO     HC 1258   3.590   4.669   0.747
  210MeO      O 1259   3.622   4.735   0.554
  210MeO      H 1260   3.558   4.672   0.521
  211MeO      C 1261   1.398   2.161   1.751
  211MeO     HA 1262   1.454   2.071   1.774
  211MeO     HB 1263   1.413   2.186   1.646
  211MeO     HC 1264   1.439   2.243   1.811
  211MeO      O 1265   1.261   2.142   1.779
  211MeO      H 1266   1.253   2.126   1.873
  212MeO      C 1267   4.785   0.096   3.908
  212MeO     HA 1268   4.837   0.110   3.813
  212MeO     HB 1269   4.806   4.921   3.945
  212MeO     HC 1270   4.678   0.106   3.891
  212MeO      O 1271   4.829   0.193   4.001
  212MeO      H 1272   4.923   0.178   4.017
  213MeO      C 1273   0.259   3.288   2.803
  213MeO     HA 1274   0.348   3.299   2.866
  213MeO     HB 1275   0.233   3.183   2.798
  213MeO     HC 1276   0.284   3.322   2.703
  213MeO      O 1277   0.152   3.364   2.855
  213MeO      H 1278   0.077   3.347   2.796
  214MeO      C 1279   2.326   4.666   1.099
  214MeO     HA 1280   2.326   4.771   1.126
  214MeO     HB 1281   2.251   4.651   1.020
  214MeO     HC 1282   2.424   4.640   1.058
  214MeO      O 1283   2.295   4.586   1.211
  214MeO      H 1284   2.208   4.614   1.243
  215MeO      C 1285   0.150   2.024   0.272
  215MeO     HA 1286   0.117   1.934   0.325
  215MeO     HB 1287   0.097   2.029   0.176
  215MeO     HC 1288   0.122   2.111   0.331
  215MeO      O 1289   0.289   2.021   0.250
  215MeO      H 1290   0.311   2.100   0.199
  216MeO      C 1291   1.314   2.612   2.536
  216MeO     HA 1292   1.246   2.643   2.616
  216MeO     HB 1293   1.340   2.508   2.552
  216MeO     HC 1294   1.404   2.672   2.542
  216MeO      O 1295   1.251   2.627   2.410
  216MeO      H 1296   1.172   2.572   2.413
  217MeO      C 1297   3.340   1.914   0.204
  217MeO     HA 1298   3.311   1.961   0.110
  217MeO     HB 1299   3.359   1.808   0.185
  217MeO     HC 1300   3.257   1.922   0.274
  217MeO      O 1301   3.455   1.977   0.256
  217MeO      H 1302   3.432   2.069   0.271
  218MeO      C 1303   1.300   2.275   3.450
  218MeO     HA 1304   1.329   2.226   3.357
  218MeO     HB 1305   1.380   2.343   3.479
  218MeO     HC 1306   1.289   2.199   3.527
  218MeO      O 1307   1.179   2.346   3.432
  218MeO      H 1308   1.114   2.281   3.402
  219MeO      C 1309   3.988   0.463   0.713
  219MeO     HA 1310   4.053   0.495   0.631
  219MeO     HB 1311   4.044   0.471   0.807
  219MeO     HC 1312   3.903   0.530   0.719
  219MeO      O 1313   3.944   0.330   0.692
  219MeO      H 1314   3.898   0.329   0.608
  220MeO      C 1315   4.493   2.010   3.831
  220MeO     HA 1316   4.510   1.935   3.909
  220MeO     HB 1317   4.455   1.960   3.743
  220MeO     HC 1318   4.418   2.081   3.867
  220MeO      O 1319   4.614   2.077   3.802
  220MeO      H 1320   4.676   2.011   3.769
  221MeO      C 1321   2.858   3.307   4.032
  221MeO     HA 1322   2.774   3.325   4.099
  221MeO     HB 1323   2.845   3.210   3.985
  221MeO     HC 1324   2.857   3.384   3.955
  221MeO      O 1325   2.979   3.312   4.104
  221MeO      H 1326   2.982   3.396   4.151
  222MeO      C 1327   0.440   2.461   2.402
  222MeO     HA 1328   0.415   2.536   2.327
  222MeO     HB 1329   0.380   2.372   2.385
  222MeO     HC 1330   0.414   2.501   2.500
  222MeO      O 1331   0.578   2.429   2.397
  222MeO      H 1332   0.592   2.364   2.467
  223MeO      C 1333   0.769   4.121   3.603
  223MeO     HA 1334   0.749   4.015   3.598
  223MeO     HB 1335   0.753   4.164   3.504
  223MeO     HC 1336   0.698   4.166   3.672
  223MeO      O 1337   0.902   4.144   3.647
  223MeO      H 1338   0.960   4.106   3.580
  224MeO      C 1339   1.060   2.628   4.165
  224MeO     HA 1340   1.152   2.618   4.108
  224MeO     HB 1341   0.977   2.629   4.095
  224MeO     HC 1342   1.049   2.542   4.230
  224MeO      O 1343   1.062   2.748   4.241
  224MeO      H 1344   1.078   2.820   4.178
  225MeO      C 1345   1.528   1.766   4.207
  225MeO     HA 1346   1.582   1.744   4.116
  225MeO     HB 1347   1.544   1.685   4.278
  225MeO     HC 1348   1.567   1.858   4.250
  225MeO      O 1349   1.390   1.780   4.180
  225MeO      H 1350   1.346   1.798   4.264
  226MeO      C 1351   2.125   2.507   0.442
  226MeO     HA 1352   2.064   2.418   0.458
  226MeO     HB 1353   2.227   2.485   0.474
  226MeO     HC 1354   2.127   2.529   0.335
  226MeO      O 1355   2.072   2.616   0.514
  226MeO      H 1356   1.981   2.628   0.485
  227MeO      C 1357   0.835   2.931   1.175
  227MeO     HA 1358   0.892   3.005   1.118
  227MeO     HB 1359   0.875   2.927   1.276
  227MeO     HC 1360   0.850   2.833   1.128
  227MeO      O 1361   0.698   2.965   1.176
  227MeO      H 1362   0.668   2.966   1.084
  228MeO      C 1363   0.916   0.119   4.713
  228MeO     HA 1364   0.963   0.129   4.615
  228MeO     HB 1365   0.902   0.013   4.733
  228MeO     HC 1366   0.984   0.160   4.788
  228MeO      O 1367   0.792   0.187   4.715
  228MeO      H 1368   0.738   0.147   4.646
  229MeO      C 1369   2.466   0.636   4.642
  229MeO     HA 1370   2.514   0.703   4.571
  229MeO     HB 1371   2.362   0.623   4.612
  229MeO     HC 1372   2.467   0.683   4.741
  229MeO      O 1373   2.531   0.511   4.645
  229MeO      H 1374   2.526   0.476   4.555
  230MeO      C 1375   0.265   4.273   0.704
  230MeO     HA 1376   0.204   4.349   0.752
  230MeO     HB 1377   0.317   4.216   0.781
  230MeO     HC 1378   0.199   4.206   0.649
  230MeO      O 1379   0.358   4.333   0.615
  230MeO      H 1380   0.307   4.377   0.546
  231MeO      C 1381   2.979   2.578   4.763
  231MeO     HA 1382   2.912   2.658   4.731
  231MeO     HB 1383   2.942   2.483   4.724
  231MeO     HC 1384   2.977   2.573   4.872
  231MeO      O 1385   3.110   2.603   4.718
  231MeO      H 1386   3.138   2.687   4.755
  232MeO      C 1387   3.851   4.811   2.934
  232MeO     HA 1388   3.836   4.779   2.831
  232MeO     HB 1389   3.781   4.890   2.957
  232MeO     HC 1390   3.953   4.849   2.943
  232MeO      O 1391   3.833   4.701   3.021
  232MeO      H 1392   3.900   4.636   2.997
  233MeO      C 1393   2.439   3.781   2.541
  233MeO     HA 1394   2.419   3.721   2.452
  233MeO     HB 1395   2.372   3.750   2.621
  233MeO     HC 1396   2.418   3.886   2.517
  233MeO      O 1397   2.573   3.767   2.582
  233MeO      H 1398   2.584   3.822   2.660
  234MeO      C 1399   3.642   1.464   0.115
  234MeO     HA 1400   3.666   1.558   0.165
  234MeO     HB 1401   3.735   1.412   0.092
  234MeO     HC 1402   3.584   1.403   0.184
  234MeO      O 1403   3.569   1.487   4.922
  234MeO      H 1404   3.552   1.400   4.884
  235MeO      C 1405   2.887   0.703   2.130
  235MeO     HA 1406   2.795   0.669   2.177
  235MeO     HB 1407   2.913   0.801   2.171
  235MeO     HC 1408   2.868   0.714   2.023
  235MeO      O 1409   2.992   0.611   2.152
  235MeO      H 1410   2.965   0.528   2.110
  236MeO      C 1411   4.073   3.240   4.577
  236MeO     HA 1412   3.981   3.199   4.619
  236MeO     HB 1413   4.060   3.348   4.565
  236MeO     HC 1414   4.089   3.196   4.479
  236MeO      O 1415   4.182   3.213   4.662
  236MeO      H 1416   4.162   3.255   4.747
  237MeO      C 1417   0.492   3.633   2.242
  237MeO     HA 1418   0.521   3.664   2.342
  237MeO     HB 1419   0.477   3.525   2.243
  237MeO     HC 1420   0.397   3.681   2.217
  237MeO      O 1421   0.592   3.667   2.149
  237MeO      H 1422   0.672   3.619   2.176
  238MeO      C 1423   1.036   3.527   4.897
  238MeO     HA 1424   0.991   3.625   4.885
  238MeO     HB 1425   1.002   3.463   4.815
  238MeO     HC 1426   1.144   3.536   4.892
  238MeO      O 1427   0.996   3.471   0.095
  238MeO      H 1428   0.901   3.462   0.094
  239MeO      C 1429   1.768   3.660   4.027
  239MeO     HA 1430   1.817   3.646   4.123
  239MeO     HB 1431   1.696   3.579   4.012
  239MeO     HC 1432   1.714   3.755   4.030
  239MeO      O 1433   1.864   3.662   3.923
  239MeO      H 1434   1.926   3.733   3.943
  240MeO      C 1435   2.229   4.601   2.691
  240MeO     HA 1436   2.243   4.564   2.589
  240MeO     HB 1437   2.320   4.583   2.747
  240MeO     HC 1438   2.211   4.708   2.686
  240MeO      O 1439   2.119   4.535   2.751
  240MeO      H 1440   2.044   4.550   2.692
  241MeO      C 1441   2.896   3.437   2.021
  241MeO     HA 1442   2.817   3.380   2.071
  241MeO     HB 1443   2.862   3.540   2.010
  241MeO     HC 1444   2.911   3.394   1.922
  241MeO      O 1445   3.016   3.432   2.096
  241MeO      H 1446   2.998   3.474   2.180
  242MeO      C 1447   4.731   1.065   2.735
  242MeO     HA 1448   4.755   0.962   2.762
  242MeO     HB 1449   4.823   1.122   2.727
  242MeO     HC 1450   4.671   1.109   2.815
  242MeO      O 1451   4.659   1.070   2.613
  242MeO      H 1452   4.637   1.163   2.599
  243MeO      C 1453   2.228   1.974   4.644
  243MeO     HA 1454   2.223   2.044   4.728
  243MeO     HB 1455   2.320   1.917   4.653
  243MeO     HC 1456   2.144   1.905   4.652
  243MeO      O 1457   2.223   2.044   4.522
  243MeO      H 1458   2.296   2.107   4.521
  244MeO      C 1459   1.100   0.777   0.353
  244MeO     HA 1460   1.047   0.684   0.330
  244MeO     HB 1461   1.149   0.812   0.263
  244MeO     HC 1462   1.175   0.755   0.428
  244MeO      O 1463   1.009   0.873   0.402
  244MeO      H 1464   0.940   0.885   0.336
  245MeO      C 1465   1.695   1.094   2.464
  245MeO     HA 1466   1.663   1.161   2.545
  245MeO     HB 1467   1.616   1.091   2.389
  245MeO     HC 1468   1.785   1.136   2.418
  245MeO      O 1469   1.721   0.965   2.514
  245MeO      H 1470   1.754   0.913   2.439
  246MeO      C 1471   3.710   1.237   2.526
  246MeO     HA 1472   3.715   1.333   2.578
  246MeO     HB 1473   3.612   1.228   2.480
  246MeO     HC 1474   3.721   1.158   2.600
  246MeO      O 1475   3.812   1.230   2.430
  246MeO      H 1476   3.805   1.308   2.374
  247MeO      C 1477   1.980   1.715   1.517
  247MeO     HA 1478   2.027   1.795   1.575
  247MeO     HB 1479   1.888   1.755   1.473
  247MeO     HC 1480   2.047   1.686   1.437
  247MeO      O 1481   1.951   1.605   1.600
  247MeO      H 1482   1.894   1.636   1.672
  248MeO      C 1483   3.194   4.487   0.209
  248MeO     HA 1484   3.161   4.387   0.236
  248MeO     HB 1485   3.153   4.512   0.111
  248MeO     HC 1486   3.155   4.558   0.282
  248MeO      O 1487   3.335   4.492   0.205
  248MeO      H 1488   3.358   4.580   0.173
  249MeO      C 1489   1.591   0.636   1.778
  249MeO     HA 1490   1.509   0.582   1.731
  249MeO     HB 1491   1.677   0.569   1.784
  249MeO     HC 1492   1.562   0.665   1.879
  249MeO      O 1493   1.624   0.750   1.701
  249MeO      H 1494   1.649   0.718   1.613
  250MeO      C 1495   4.010   2.680   1.926
  250MeO     HA 1496   4.108   2.676   1.974
  250MeO     HB 1497   3.991   2.783   1.895
  250MeO     HC 1498   3.935   2.651   1.999
  250MeO      O 1499   4.007   2.593   1.815
  250MeO      H 1500   4.024   2.504   1.849
  251MeO      C 1501   1.554   4.311   2.727
  251MeO     HA 1502   1.514   4.374   2.648
  251MeO     HB 1503   1.588   4.375   2.809
  251MeO     HC 1504   1.639   4.255   2.688
  251MeO      O 1505   1.454   4.222   2.773
  251MeO      H 1506   1.385   4.277   2.811
  252MeO      C 1507   4.277   1.502   4.677
  252MeO     HA 1508   4.345   1.474   4.758
  252MeO     HB 1509   4.337   1.527   4.589
  252MeO     HC 1510   4.215   1.416   4.653
  252MeO      O 1511   4.197   1.612   4.716
  252MeO      H 1512   4.145   1.584   4.792
  253MeO      C 1513   4.568   1.398   1.242
  253MeO     HA 1514   4.523   1.476   1.302
  253MeO     HB 1515   4.493   1.363   1.170
  253MeO     HC 1516   4.595   1.315   1.307
  253MeO      O 1517   4.682   1.446   1.174
  253MeO      H 1518   4.715   1.374   1.119
  254MeO      C 1519   0.113   2.648   2.433
  254MeO     HA 1520   0.017   2.674   2.479
  254MeO     HB 1521   0.193   2.685   2.497
  254MeO     HC 1522   0.119   2.698   2.336
  254MeO      O 1523   0.123   2.508   2.417
  254MeO      H 1524   0.053   2.481   2.357
  255MeO      C 1525   3.286   4.067   0.474
  255MeO     HA 1526   3.265   3.961   0.484
  255MeO     HB 1527   3.200   4.116   0.430
  255MeO     HC 1528   3.371   4.079   0.407
  255MeO      O 1529   3.314   4.122   0.601
  255MeO      H 1530   3.238   4.106   0.657
  256MeO      C 1531   3.936   4.759   3.853
  256MeO     HA 1532   3.925   4.867   3.847
  256MeO     HB 1533   3.908   4.726   3.953
  256MeO     HC 1534   3.867   4.714   3.781
  256MeO      O 1535   4.069   4.721   3.823
  256MeO      H 1536   4.086   4.751   3.733
  257MeO      C 1537   3.037   4.630   2.399
  257MeO     HA 1538   3.064   4.525   2.412
  257MeO     HB 1539   2.980   4.662   2.486
  257MeO     HC 1540   2.974   4.638   2.311
  257MeO      O 1541   3.153   4.710   2.385
  257MeO      H 1542   3.203   4.702   2.468
  258MeO      C 1543   1.033   4.855   3.889
  258MeO     HA 1544   1.095   4.816   3.809
  258MeO     HB 1545   1.049   0.037   3.896
  258MeO     HC 1546   1.065   4.809   3.983
  258MeO      O 1547   0.896   4.826   3.864
  258MeO      H 1548   0.890   4.730   3.858
  259MeO      C 1549   0.081   3.013   1.359
  259MeO     HA 1550   0.024   2.928   1.397
  259MeO     HB 1551   0.051   3.101   1.416
  259MeO     HC 1552   0.187   2.995   1.377
  259MeO      O 1553   0.055   3.031   1.222
  259MeO      H 1554   4.885   3.037   1.214
  260MeO      C 1555   4.116   4.672   4.375
  260MeO     HA 1556   4.094   4.706   4.477
  260MeO     HB 1557   4.193   4.595   4.380
  260MeO     HC 1558   4.025   4.627   4.334
  260MeO      O 1559   4.158   4.779   4.294
  260MeO      H 1560   4.175   4.743   4.207
  261MeO      C 1561   4.544   0.708   3.224
  261MeO     HA 1562   4.468   0.783   3.244
  261MeO     HB 1563   4.598   0.736   3.133
  261MeO     HC 1564   4.494   0.612   3.206
  261MeO      O 1565   4.634   0.696   3.332
  261MeO      H 1566   4.696   0.626   3.310
  262MeO      C 1567   0.924   0.864   2.209
  262MeO     HA 1568   0.916   0.899   2.106
  262MeO     HB 1569   0.839   0.904   2.265
  262MeO     HC 1570   0.917   0.755   2.209
  262MeO      O 1571   1.045   0.906   2.267
  262MeO      H 1572   1.044   0.875   2.358
  263MeO      C 1573   0.646   3.896   1.900
  263MeO     HA 1574   0.697   3.809   1.858
  263MeO     HB 1575   0.624   3.966   1.820
  263MeO     HC 1576   0.713   3.944   1.971
  263MeO      O 1577   0.527   3.856   1.965
  263MeO      H 1578   0.552   3.790   2.031
  264MeO      C 1579   1.838   4.455   2.521
  264MeO     HA 1580   1.736   4.482   2.491
  264MeO     HB 1581   1.834   4.365   2.582
  264MeO     HC 1582   1.897   4.435   2.432
  264MeO      O 1583   1.895   4.561   2.596
  264MeO      H 1584   1.833   4.583   2.667
  265MeO      C 1585   0.491   4.115   2.202
  265MeO     HA 1586   0.431   4.144   2.116
  265MeO     HB 1587   0.593   4.147   2.186
  265MeO     HC 1588   0.489   4.006   2.210
  265MeO      O 1589   0.438   4.172   2.320
  265MeO      H 1590   0.346   4.143   2.327
  266MeO      C 1591   1.507   2.918   4.351
  266MeO     HA 1592   1.430   2.929   4.427
  266MeO     HB 1593   1.572   2.835   4.381
  266MeO     HC 1594   1.459   2.892   4.256
  266MeO      O 1595   1.580   3.038   4.337
  266MeO      H 1596   1.516   3.106   4.313
  267MeO      C 1597   0.702   2.541   3.919
  267MeO     HA 1598   0.608   2.582   3.958
  267MeO     HB 1599   0.784   2.594   3.966
  267MeO     HC 1600   0.708   2.436   3.945
  267MeO      O 1601   0.708   2.558   3.779
  267MeO      H 1602   0.797   2.530   3.752
  268MeO      C 1603   0.970   1.537   4.431
  268MeO     HA 1604   0.965   1.492   4.530
  268MeO     HB 1605   1.034   1.475   4.368
  268MeO     HC 1606   0.870   1.538   4.388
  268MeO      O 1607   1.021   1.668   4.440
  268MeO      H 1608   0.961   1.718   4.497
  269MeO      C 1609   2.286   1.218   0.740
  269MeO     HA 1610   2.286   1.322   0.705
  269MeO     HB 1611   2.317   1.154   0.658
  269MeO     HC 1612   2.184   1.192   0.769
  269MeO      O 1613   2.373   1.204   0.850
  269MeO      H 1614   2.337   1.259   0.921
  270MeO      C 1615   0.923   0.533   3.044
  270MeO     HA 1616   0.989   0.595   3.105
  270MeO     HB 1617   0.952   0.544   2.939
  270MeO     HC 1618   0.821   0.569   3.056
  270MeO      O 1619   0.933   0.398   3.083
  270MeO      H 1620   0.870   0.348   3.029
  271MeO      C 1621   3.043   2.669   1.156
  271MeO     HA 1622   3.047   2.643   1.261
  271MeO     HB 1623   3.140   2.708   1.126
  271MeO     HC 1624   2.969   2.748   1.142
  271MeO      O 1625   3.009   2.557   1.077
  271MeO      H 1626   3.008   2.587   0.986
  272MeO      C 1627   1.711   2.575   2.261
  272MeO     HA 1628   1.812   2.537   2.244
  272MeO     HB 1629   1.687   2.565   2.367
  272MeO     HC 1630   1.641   2.514   2.204
  272MeO      O 1631   1.701   2.710   2.222
  272MeO      H 1632   1.612   2.739   2.244
  273MeO      C 1633   0.455   2.567   0.681
  273MeO     HA 1634   0.473   2.672   0.705
  273MeO     HB 1635   0.377   2.561   0.605
  273MeO     HC 1636   0.419   2.517   0.771
  273MeO      O 1637   0.574   2.507   0.635
  273MeO      H 1638   0.635   2.508   0.710
  274MeO      C 1639   3.728   2.658   4.414
  274MeO     HA 1640   3.647   2.689   4.480
  274MeO     HB 1641   3.697   2.675   4.310
  274MeO     HC 1642   3.815   2.720   4.434
  274MeO      O 1643   3.758   2.521   4.435
  274MeO      H 1644   3.789   2.512   4.525
  275MeO      C 1645   3.660   3.998   2.775
  275MeO     HA 1646   3.683   4.039   2.873
  275MeO     HB 1647   3.661   3.889   2.782
  275MeO     HC 1648   3.739   4.029   2.706
  275MeO      O 1649   3.535   4.044   2.730
  275MeO      H 1650   3.540   4.140   2.725
  276MeO      C 1651   0.809   3.646   3.170
  276MeO     HA 1652   0.776   3.748   3.154
  276MeO     HB 1653   0.843   3.636   3.273
  276MeO     HC 1654   0.894   3.626   3.105
  276MeO      O 1655   0.705   3.554   3.144
  276MeO      H 1656   0.738   3.468   3.172
  277MeO      C 1657   1.505   0.675   2.555
  277MeO     HA 1658   1.455   0.587   2.514
  277MeO     HB 1659   1.469   0.763   2.502
  277MeO     HC 1660   1.612   0.667   2.539
  277MeO      O 1661   1.478   0.688   2.693
  277MeO      H 1662   1.523   0.767   2.723
  278MeO      C 1663   4.251   2.842   4.865
  278MeO     HA 1664   4.221   2.933   4.814
  278MeO     HB 1665   4.304   2.778   4.794
  278MeO     HC 1666   4.320   2.868   0.020
  278MeO      O 1667   4.138   2.775   4.916
  278MeO      H 1668   4.081   2.756   4.840
  279MeO      C 1669   4.069   2.518   4.163
  279MeO     HA 1670   4.107   2.416   4.152
  279MeO     HB 1671   4.000   2.538   4.081
  279MeO     HC 1672   4.014   2.525   4.257
  279MeO      O 1673   4.176   2.611   4.160
  279MeO      H 1674   4.223   2.596   4.077
  280MeO      C 1675   3.078   3.852   1.538
  280MeO     HA 1676   3.070   3.938   1.605
  280MeO     HB 1677   3.177   3.853   1.493
  280MeO     HC 1678   3.004   3.862   1.460
  280MeO      O 1679   3.059   3.732   1.611
  280MeO      H 1680   3.128   3.729   1.679
  281MeO      C 1681   0.744   1.086   3.301
  281MeO     HA 1682   0.755   1.194   3.292
  281MeO     HB 1683   0.843   1.041   3.305
  281MeO     HC 1684   0.692   1.049   3.213
  281MeO      O 1685   0.672   1.055   3.419
  281MeO      H 1686   0.721   1.093   3.493
  282MeO      C 1687   4.389   2.443   3.961
  282MeO     HA 1688   4.496   2.457   3.947
  282MeO     HB 1689   4.356   2.362   3.895
  282MeO     HC 1690   4.372   2.413   4.064
  282MeO      O 1691   4.319   2.562   3.932
  282MeO      H 1692   4.345   2.590   3.844
  283MeO      C 1693   0.265   0.683   4.819
  283MeO     HA 1694   0.191   0.752   4.779
  283MeO     HB 1695   0.321   0.733   4.897
  283MeO     HC 1696   0.333   0.655   4.739
  283MeO      O 1697   0.200   0.569   4.871
  283MeO      H 1698   0.269   0.512   4.909
  284MeO      C 1699   4.225   4.400   3.505
  284MeO     HA 1700   4.295   4.350   3.572
  284MeO     HB 1701   4.127   4.403   3.552
  284MeO     HC 1702   4.259   4.503   3.490
  284MeO      O 1703   4.219   4.333   3.381
  284MeO      H 1704   4.308   4.334   3.343
  285MeO      C 1705   2.021   3.736   0.980
  285MeO     HA 1706   1.927   3.702   1.023
  285MeO     HB 1707   2.101   3.670   1.014
  285MeO     HC 1708   2.013   3.730   0.872
  285MeO      O 1709   2.046   3.869   1.020
  285MeO      H 1710   1.971   3.922   0.990
  286MeO      C 1711   1.701   0.067   1.614
  286MeO     HA 1712   1.802   0.026   1.603
  286MeO     HB 1713   1.648   0.055   1.520
  286MeO     HC 1714   1.649   0.009   1.691
  286MeO      O 1715   1.707   0.203   1.651
  286MeO      H 1716   1.760   0.208   1.732
  287MeO      C 1717   2.711   0.595   1.356
  287MeO     HA 1718   2.757   0.497   1.367
  287MeO     HB 1719   2.756   0.645   1.270
  287MeO     HC 1720   2.732   0.653   1.446
  287MeO      O 1721   2.571   0.582   1.338
  287MeO      H 1722   2.534   0.670   1.338
  288MeO      C 1723   4.127   4.343   0.598
  288MeO     HA 1724   4.022   4.321   0.577
  288MeO     HB 1725   4.188   4.262   0.557
  288MeO     HC 1726   4.154   4.436   0.549
  288MeO      O 1727   4.149   4.353   0.738
  288MeO      H 1728   4.242   4.373   0.749
  289MeO      C 1729   0.642   4.485   2.917
  289MeO     HA 1730   0.548   4.529   2.884
  289MeO     HB 1731   0.722   4.555   2.893
  289MeO     HC 1732   0.639   4.472   3.025
  289MeO      O 1733   0.663   4.361   2.853
  289MeO      H 1734   0.584   4.308   2.869
  290MeO      C 1735   3.450   4.411   4.725
  290MeO     HA 1736   3.532   4.482   4.717
  290MeO     HB 1737   3.444   4.354   4.632
  290MeO     HC 1738   3.472   4.342   4.807
  290MeO      O 1739   3.328   4.479   4.749
  290MeO      H 1740   3.317   4.542   4.677
  291MeO      C 1741   2.784   4.482   0.608
  291MeO     HA 1742   2.792   4.549   0.523
  291MeO     HB 1743   2.844   4.393   0.589
  291MeO     HC 1744   2.824   4.533   0.696
  291MeO      O 1745   2.649   4.447   0.630
  291MeO      H 1746   2.602   4.530   0.645
  292MeO      C 1747   3.367   1.345   2.960
  292MeO     HA 1748   3.434   1.407   3.020
  292MeO     HB 1749   3.272   1.336   3.012
  292MeO     HC 1750   3.350   1.395   2.865
  292MeO      O 1751   3.424   1.217   2.939
  292MeO      H 1752   3.438   1.179   3.027
  293MeO      C 1753   2.401   1.460   2.834
  293MeO     HA 1754   2.400   1.547   2.899
  293MeO     HB 1755   2.377   1.493   2.732
  293MeO     HC 1756   2.324   1.391   2.867
  293MeO      O 1757   2.528   1.397   2.838
  293MeO      H 1758   2.545   1.376   2.930
  294MeO      C 1759   1.418   1.774   4.773
  294MeO     HA 1760   1.309   1.767   4.779
  294MeO     HB 1761   1.450   1.863   4.827
  294MeO     HC 1762   1.445   1.786   4.668
  294MeO      O 1763   1.477   1.658   4.827
  294MeO      H 1764   1.448   1.585   4.770
  295MeO      C 1765   4.809   2.704   1.174
  295MeO     HA 1766   4.740   2.699   1.090
  295MeO     HB 1767   4.874   2.790   1.161
  295MeO     HC 1768   4.751   2.717   1.265
  295MeO      O 1769   4.885   2.585   1.182
  295MeO      H 1770   4.822   2.512   1.183
  296MeO      C 1771   3.487   3.541   3.143
  296MeO     HA 1772   3.386   3.513   3.174
  296MeO     HB 1773   3.533   3.455   3.095
  296MeO     HC 1774   3.480   3.622   3.070
  296MeO      O 1775   3.562   3.582   3.255
  296MeO      H 1776   3.559   3.509   3.319
  297MeO      C 1777   1.640   3.305   2.684
  297MeO     HA 1778   1.617   3.389   2.750
  297MeO     HB 1779   1.662   3.218   2.745
  297MeO     HC 1780   1.728   3.330   2.626
  297MeO      O 1781   1.530   3.281   2.598
  297MeO      H 1782   1.516   3.361   2.547
  298MeO      C 1783   2.723   4.560   3.192
  298MeO     HA 1784   2.800   4.589   3.121
  298MeO     HB 1785   2.718   4.636   3.271
  298MeO     HC 1786   2.751   4.465   3.238
  298MeO      O 1787   2.598   4.549   3.127
  298MeO      H 1788   2.581   4.634   3.086
  299MeO      C 1789   0.663   4.292   1.861
  299MeO     HA 1790   0.670   4.205   1.796
  299MeO     HB 1791   0.672   4.382   1.801
  299MeO     HC 1792   0.565   4.292   1.909
  299MeO      O 1793   0.765   4.288   1.959
  299MeO      H 1794   0.753   4.367   2.014
  300MeO      C 1795   3.937   2.528   2.424
  300MeO     HA 1796   3.850   2.540   2.359
  300MeO     HB 1797   4.014   2.472   2.370
  300MeO     HC 1798   3.977   2.627   2.447
  300MeO      O 1799   3.901   2.462   2.543
  300MeO      H 1800   3.838   2.521   2.588
  301MeO      C 1801   0.553   4.066   1.529
  301MeO     HA 1802   0.492   4.107   1.609
  301MeO     HB 1803   0.503   4.085   1.434
  301MeO     HC 1804   0.561   3.958   1.542
  301MeO      O 1805   0.681   4.125   1.529
  301MeO      H 1806   0.668   4.220   1.517
  302MeO      C 1807   3.594   1.725   0.441
  302MeO     HA 1808   3.667   1.671   0.502
  302MeO     HB 1809   3.556   1.658   0.364
  302MeO     HC 1810   3.511   1.756   0.504
  302MeO      O 1811   3.654   1.839   0.382
  302MeO      H 1812   3.584   1.886   0.336
  303MeO      C 1813   4.388   3.326   2.912
  303MeO     HA 1814   4.398   3.233   2.968
  303MeO     HB 1815   4.488   3.360   2.884
  303MeO     HC 1816   4.332   3.305   2.821
  303MeO      O 1817   4.322   3.424   2.990
  303MeO      H 1818   4.381   3.443   3.064
  304MeO      C 1819   4.908   2.441   3.967
  304MeO     HA 1820   0.073   2.495   3.940
  304MeO     HB 1821   4.850   2.425   3.877
  304MeO     HC 1822   4.850   2.503   4.035
  304MeO      O 1823   0.013   2.317   4.027
  304MeO      H 1824   4.854   2.272   4.038
  305MeO      C 1825   3.506   0.213   4.071
  305MeO     HA 1826   3.513   0.108   4.045
  305MeO     HB 1827   3.602   0.261   4.053
  305MeO     HC 1828   3.483   0.222   4.177
  305MeO      O 1829   3.405   0.277   3.995
  305MeO      H 1830   3.406   0.370   4.022
  306MeO      C 1831   2.216   3.629   4.174
  306MeO     HA 1832   2.145   3.692   4.227
  306MeO     HB 1833   2.217   3.659   4.069
  306MeO     HC 1834   2.184   3.526   4.180
  306MeO      O 1835   2.346   3.643   4.229
  306MeO      H 1836   2.404   3.585   4.178
  307MeO      C 1837   1.898   3.039   0.473
  307MeO     HA 1838   1.823   2.975   0.518
  307MeO     HB 1839   1.849   3.126   0.429
  307MeO     HC 1840   1.948   2.983   0.395
  307MeO      O 1841   1.992   3.080   0.571
  307MeO      H 1842   2.031   2.999   0.607
  308MeO      C 1843   0.637   4.164   0.792
  308MeO     HA 1844   0.559   4.173   0.716
  308MeO     HB 1845   0.721   4.109   0.747
  308MeO     HC 1846   0.672   4.263   0.819
  308MeO      O 1847   0.588   4.094   0.904
  308MeO      H 1848   0.550   4.013   0.869
  309MeO      C 1849   1.231   3.520   0.693
  309MeO     HA 1850   1.168   3.545   0.778
  309MeO     HB 1851   1.336   3.535   0.721
  309MeO     HC 1852   1.207   3.588   0.611
  309MeO      O 1853   1.210   3.386   0.654
  309MeO      H 1854   1.118   3.378   0.624
  310MeO      C 1855   2.755   2.316   1.080
  310MeO     HA 1856   2.711   2.216   1.079
  310MeO     HB 1857   2.729   2.366   0.987
  310MeO     HC 1858   2.712   2.372   1.162
  310MeO      O 1859   2.896   2.308   1.094
  310MeO      H 1860   2.930   2.398   1.090
  311MeO      C 1861   2.378   3.935   4.045
  311MeO     HA 1862   2.321   3.920   4.137
  311MeO     HB 1863   2.443   3.848   4.030
  311MeO     HC 1864   2.441   4.023   4.057
  311MeO      O 1865   2.292   3.951   3.935
  311MeO      H 1866   2.346   3.970   3.858
  312MeO      C 1867   3.709   2.387   4.006
  312MeO     HA 1868   3.782   2.397   4.087
  312MeO     HB 1869   3.611   2.373   4.051
  312MeO     HC 1870   3.709   2.479   3.948
  312MeO      O 1871   3.742   2.276   3.925
  312MeO      H 1872   3.736   2.198   3.981
  313MeO      C 1873   3.234   2.857   2.241
  313MeO     HA 1874   3.324   2.918   2.251
  313MeO     HB 1875   3.152   2.908   2.293
  313MeO     HC 1876   3.208   2.850   2.136
  313MeO      O 1877   3.253   2.729   2.296
  313MeO      H 1878   3.171   2.680   2.282
  314MeO      C 1879   2.629   1.076   4.780
  314MeO     HA 1880   2.717   1.059   4.842
  314MeO     HB 1881   2.559   1.140   4.834
  314MeO     HC 1882   2.660   1.127   4.689
  314MeO      O 1883   2.568   0.953   4.748
  314MeO      H 1884   2.631   0.903   4.695
  315MeO      C 1885   4.894   1.910   3.834
  315MeO     HA 1886   0.073   1.910   3.805
  315MeO     HB 1887   4.879   1.832   3.909
  315MeO     HC 1888   4.872   2.007   3.880
  315MeO      O 1889   4.812   1.887   3.722
  315MeO      H 1890   4.840   1.802   3.686
  316MeO      C 1891   4.724   4.402   2.625
  316MeO     HA 1892   4.767   4.426   2.527
  316MeO     HB 1893   4.753   4.481   2.695
  316MeO     HC 1894   4.767   4.308   2.659
  316MeO      O 1895   4.584   4.393   2.616
  316MeO      H 1896   4.552   4.369   2.704
  317MeO      C 1897   2.988   3.865   0.028
  317MeO     HA 1898   2.944   3.815   0.115
  317MeO     HB 1899   2.979   3.799   4.868
  317MeO     HC 1900   3.093   3.883   0.049
  317MeO      O 1901   2.921   3.987   0.003
  317MeO      H 1902   2.929   4.038   0.084
  318MeO      C 1903   0.210   3.749   3.473
  318MeO     HA 1904   0.221   3.756   3.365
  318MeO     HB 1905   0.151   3.833   3.508
  318MeO     HC 1906   0.310   3.756   3.518
  318MeO      O 1907   0.149   3.626   3.508
  318MeO      H 1908   0.206   3.556   3.473
  319MeO      C 1909   1.558   1.353   2.780
  319MeO     HA 1910   1.587   1.445   2.729
  319MeO     HB 1911   1.466   1.372   2.835
  319MeO     HC 1912   1.537   1.277   2.704
  319MeO      O 1913   1.660   1.309   2.866
  319MeO      H 1914   1.741   1.307   2.815
  320MeO      C 1915   0.342   1.405   3.697
  320MeO     HA 1916   0.334   1.372   3.594
  320MeO     HB 1917   0.416   1.343   3.748
  320MeO     HC 1918   0.246   1.391   3.746
  320MeO      O 1919   0.381   1.541   3.703
  320MeO      H 1920   0.384   1.565   3.797
  321MeO      C 1921   3.928   3.685   1.506
  321MeO     HA 1922   4.022   3.669   1.557
  321MeO     HB 1923   3.931   3.781   1.456
  321MeO     HC 1924   3.915   3.607   1.431
  321MeO      O 1925   3.820   3.681   1.597
  321MeO      H 1926   3.739   3.691   1.544
  322MeO      C 1927   0.006   1.249   1.334
  322MeO     HA 1928   0.083   1.244   1.257
  322MeO     HB 1929   4.892   1.351   1.336
  322MeO     HC 1930   0.052   1.227   1.431
  322MeO      O 1931   4.828   1.157   1.306
  322MeO      H 1932   4.798   1.177   1.217
  323MeO      C 1933   3.321   1.827   1.663
  323MeO     HA 1934   3.379   1.808   1.753
  323MeO     HB 1935   3.221   1.786   1.678
  323MeO     HC 1936   3.368   1.775   1.580
  323MeO      O 1937   3.313   1.965   1.636
  323MeO      H 1938   3.259   1.976   1.558
  324MeO      C 1939   3.767   3.811   3.125
  324MeO     HA 1940   3.802   3.747   3.206
  324MeO     HB 1941   3.672   3.855   3.155
  324MeO     HC 1942   3.750   3.749   3.037
  324MeO      O 1943   3.862   3.912   3.097
  324MeO      H 1944   3.875   3.959   3.180
  325MeO      C 1945   3.607   3.370   3.561
  325MeO     HA 1946   3.615   3.265   3.588
  325MeO     HB 1947   3.558   3.423   3.642
  325MeO     HC 1948   3.707   3.411   3.547
  325MeO      O 1949   3.531   3.384   3.442
  325MeO      H 1950   3.444   3.347   3.461
  326MeO      C 1951   0.944   1.281   0.451
  326MeO     HA 1952   0.935   1.207   0.530
  326MeO     HB 1953   1.046   1.278   0.412
  326MeO     HC 1954   0.876   1.255   0.370
  326MeO      O 1955   0.914   1.411   0.500
  326MeO      H 1956   0.917   1.471   0.424
  327MeO      C 1957   2.446   4.482   1.512
  327MeO     HA 1958   2.521   4.432   1.450
  327MeO     HB 1959   2.483   4.487   1.614
  327MeO     HC 1960   2.356   4.421   1.511
  327MeO      O 1961   2.419   4.611   1.462
  327MeO      H 1962   2.385   4.600   1.373
  328MeO      C 1963   3.160   4.353   3.100
  328MeO     HA 1964   3.217   4.370   3.192
  328MeO     HB 1965   3.213   4.400   3.017
  328MeO     HC 1966   3.156   4.246   3.082
  328MeO      O 1967   3.029   4.406   3.112
  328MeO      H 1968   2.986   4.357   3.182
  329MeO      C 1969   3.113   4.686   0.612
  329MeO     HA 1970   3.104   4.578   0.623
  329MeO     HB 1971   3.208   4.717   0.655
  329MeO     HC 1972   3.113   4.711   0.506
  329MeO      O 1973   3.006   4.751   0.677
  329MeO      H 1974   3.021   4.846   0.667
  330MeO      C 1975   1.527   4.284   1.578
  330MeO     HA 1976   1.546   4.220   1.492
  330MeO     HB 1977   1.483   4.224   1.657
  330MeO     HC 1978   1.622   4.324   1.613
  330MeO      O 1979   1.439   4.389   1.541
  330MeO      H 1980   1.429   4.445   1.620
  331MeO      C 1981   2.998   1.077   1.985
  331MeO     HA 1982   3.026   1.107   1.884
  331MeO     HB 1983   3.031   1.153   2.055
  331MeO     HC 1984   3.049   0.983   2.009
  331MeO      O 1985   2.858   1.059   1.994
  331MeO      H 1986   2.833   0.995   1.926
  332MeO      C 1987   3.917   1.385   1.720
  332MeO     HA 1988   4.005   1.345   1.770
  332MeO     HB 1989   3.935   1.386   1.612
  332MeO     HC 1990   3.903   1.488   1.753
  332MeO      O 1991   3.803   1.308   1.750
  332MeO      H 1992   3.729   1.348   1.702
  333MeO      C 1993   2.098   2.032   0.609
  333MeO     HA 1994   2.013   2.021   0.676
  333MeO     HB 1995   2.086   1.960   0.527
  333MeO     HC 1996   2.189   2.007   0.664
  333MeO      O 1997   2.104   2.163   0.558
  333MeO      H 1998   2.021   2.177   0.510
  334MeO      C 1999   4.127   0.488   3.946
  334MeO     HA 2000   4.217   0.506   3.886
  334MeO     HB 2001   4.040   0.522   3.891
  334MeO     HC 2002   4.136   0.546   4.038
  334MeO      O 2003   4.116   0.351   3.977
  334MeO      H 2004   4.196   0.327   4.026
  335MeO      C 2005   0.170   2.314   4.715
  335MeO     HA 2006   0.272   2.283   4.692
  335MeO     HB 2007   0.157   2.418   4.687
  335MeO     HC 2008   0.101   2.254   4.655
  335MeO      O 2009   0.143   2.297   4.852
  335MeO      H 2010   0.052   2.326   4.867
  336MeO      C 2011   2.944   0.240   4.923
  336MeO     HA 2012   2.894   0.214   0.091
  336MeO     HB 2013   3.048   0.208   0.002
  336MeO     HC 2014   2.894   0.186   4.842
  336MeO      O 2015   2.936   0.380   4.901
  336MeO      H 2016   2.843   0.401   4.886
  337MeO      C 2017   0.156   1.648   4.323
  337MeO     HA 2018   0.123   1.659   4.220
  337MeO     HB 2019   0.128   1.738   4.378
  337MeO     HC 2020   0.105   1.563   4.367
  337MeO      O 2021   0.296   1.628   4.326
  337MeO      H 2022   0.314   1.548   4.276
  338MeO      C 2023   2.185   0.306   1.975
  338MeO     HA 2024   2.192   0.197   1.972
  338MeO     HB 2025   2.286   0.347   1.966
  338MeO     HC 2026   2.145   0.334   2.073
  338MeO      O 2027   2.102   0.354   1.871
  338MeO      H 2028   2.100   0.450   1.880
  339MeO      C 2029   3.892   0.361   4.901
  339MeO     HA 2030   3.938   0.276   0.026
  339MeO     HB 2031   3.802   0.389   0.031
  339MeO     HC 2032   3.862   0.329   4.801
  339MeO      O 2033   3.981   0.470   4.894
  339MeO      H 2034   3.996   0.500   0.058
  340MeO      C 2035   4.489   4.870   0.884
  340MeO     HA 2036   4.520   4.802   0.963
  340MeO     HB 2037   4.394   4.835   0.843
  340MeO     HC 2038   4.473   0.043   0.927
  340MeO      O 2039   4.586   4.877   0.782
  340MeO      H 2040   4.552   0.011   0.715
  341MeO      C 2041   0.699   4.855   0.037
  341MeO     HA 2042   0.788   4.814   4.914
  341MeO     HB 2043   0.714   4.850   0.145
  341MeO     HC 2044   0.687   0.033   0.008
  341MeO      O 2045   0.585   4.780   0.001
  341MeO      H 2046   0.603   4.688   0.025
  342MeO      C 2047   2.104   3.884   2.719
  342MeO     HA 2048   2.035   3.962   2.751
  342MeO     HB 2049   2.176   3.927   2.650
  342MeO     HC 2050   2.158   3.847   2.807
  342MeO      O 2051   2.033   3.778   2.658
  342MeO      H 2052   1.970   3.746   2.724
  343MeO      C 2053   1.145   1.319   1.614
  343MeO     HA 2054   1.061   1.340   1.680
  343MeO     HB 2055   1.237   1.352   1.663
  343MeO     HC 2056   1.150   1.211   1.599
  343MeO      O 2057   1.129   1.385   1.491
  343MeO      H 2058   1.050   1.348   1.449
  344MeO      C 2059   3.356   2.155   4.227
  344MeO     HA 2060   3.279   2.120   4.159
  344MeO     HB 2061   3.452   2.114   4.195
  344MeO     HC 2062   3.334   2.117   4.327
  344MeO      O 2063   3.361   2.296   4.228
  344MeO      H 2064   3.426   2.321   4.295
  345MeO      C 2065   0.469   2.272   0.033
  345MeO     HA 2066   0.479   2.214   4.867
  345MeO     HB 2067   0.554   2.250   0.098
  345MeO     HC 2068   0.472   2.378   0.008
  345MeO      O 2069   0.347   2.241   0.098
  345MeO      H 2070   0.276   2.260   0.036
  346MeO      C 2071   3.403   3.144   3.161
  346MeO     HA 2072   3.451   3.236   3.128
  346MeO     HB 2073   3.407   3.140   3.269
  346MeO     HC 2074   3.299   3.146   3.130
  346MeO      O 2075   3.468   3.032   3.105
  346MeO      H 2076   3.418   2.954   3.131
  347MeO      C 2077   4.171   4.585   2.145
  347MeO     HA 2078   4.133   4.559   2.046
  347MeO     HB 2079   4.120   4.524   2.219
  347MeO     HC 2080   4.278   4.562   2.149
  347MeO      O 2081   4.150   4.722   2.171
  347MeO      H 2082   4.055   4.739   2.162
  348MeO      C 2083   4.602   3.691   0.979
  348MeO     HA 2084   4.688   3.649   1.032
  348MeO     HB 2085   4.515   3.628   0.998
  348MeO     HC 2086   4.623   3.689   0.872
  348MeO      O 2087   4.577   3.823   1.021
  348MeO      H 2088   4.499   3.854   0.973
  349MeO      C 2089   3.243   0.859   0.467
  349MeO     HA 2090   3.244   0.868   0.359
  349MeO     HB 2091   3.257   0.755   0.494
  349MeO     HC 2092   3.145   0.890   0.503
  349MeO      O 2093   3.344   0.939   0.526
  349MeO      H 2094   3.339   0.922   0.621
  350MeO      C 2095   1.416   3.352   4.345
  350MeO     HA 2096   1.389   3.432   4.276
  350MeO     HB 2097   1.521   3.363   4.372
  350MeO     HC 2098   1.355   3.362   4.435
  350MeO      O 2099   1.393   3.226   4.284
  350MeO      H 2100   1.299   3.223   4.262
  351MeO      C 2101   0.803   1.353   2.862
  351MeO     HA 2102   0.776   1.456   2.838
  351MeO     HB 2103   0.732   1.287   2.812
  351MeO     HC 2104   0.903   1.334   2.823
  351MeO      O 2105   0.798   1.333   3.002
  351MeO      H 2106   0.707   1.353   3.028
  352MeO      C 2107   0.345   0.077   0.617
  352MeO     HA 2108   0.330   0.182   0.639
  352MeO     HB 2109   0.451   0.055   0.620
  352MeO     HC 2110   0.295   0.018   0.694
  352MeO      O 2111   0.291   0.045   0.490
  352MeO      H 2112   0.196   0.059   0.496
  353MeO      C 2113   1.299   1.263   2.458
  353MeO     HA 2114   1.234   1.274   2.371
  353MeO     HB 2115   1.383   1.199   2.431
  353MeO     HC 2116   1.242   1.214   2.537
  353MeO      O 2117   1.343   1.389   2.503
  353MeO      H 2118   1.265   1.436   2.532
  354MeO      C 2119   3.063   4.532   3.442
  354MeO     HA 2120   3.159   4.509   3.398
  354MeO     HB 2121   3.037   4.455   3.514
  354MeO     HC 2122   2.987   4.532   3.363
  354MeO      O 2123   3.066   4.658   3.505
  354MeO      H 2124   2.977   4.676   3.537
  355MeO      C 2125   0.667   4.863   2.156
  355MeO     HA 2126   0.629   4.904   2.062
  355MeO     HB 2127   0.691   0.020   2.222
  355MeO     HC 2128   0.590   4.802   2.202
  355MeO      O 2129   0.783   4.785   2.131
  355MeO      H 2130   0.849   4.844   2.094
  356MeO      C 2131   2.923   2.682   2.209
  356MeO     HA 2132   2.828   2.633   2.188
  356MeO     HB 2133   2.964   2.721   2.116
  356MeO     HC 2134   2.904   2.765   2.277
  356MeO      O 2135   3.013   2.590   2.268
  356MeO      H 2136   2.971   2.559   2.350
  357MeO      C 2137   4.040   0.260   1.530
  357MeO     HA 2138   4.057   0.287   1.635
  357MeO     HB 2139   4.118   0.191   1.499
  357MeO     HC 2140   3.944   0.209   1.524
  357MeO      O 2141   4.040   0.375   1.449
  357MeO      H 2142   3.966   0.430   1.478
  358MeO      C 2143   3.273   1.238   4.283
  358MeO     HA 2144   3.263   1.147   4.224
  358MeO     HB 2145   3.217   1.227   4.375
  358MeO     HC 2146   3.379   1.251   4.308
  358MeO      O 2147   3.226   1.350   4.211
  358MeO      H 2148   3.228   1.426   4.269
  359MeO      C 2149   2.913   1.164   4.439
  359MeO     HA 2150   2.964   1.174   4.344
  359MeO     HB 2151   2.811   1.198   4.428
  359MeO     HC 2152   2.964   1.228   4.512
  359MeO      O 2153   2.917   1.030   4.483
  359MeO      H 2154   3.008   1.011   4.510
  360MeO      C 2155   0.784   1.937   0.380
  360MeO     HA 2156   0.758   1.996   0.292
  360MeO     HB 2157   0.739   1.984   0.467
  360MeO     HC 2158   0.892   1.939   0.392
  360MeO      O 2159   0.737   1.805   0.366
  360MeO      H 2160   0.643   1.811   0.347
  361MeO      C 2161   4.663   0.321   4.269
  361MeO     HA 2162   4.744   0.393   4.261
  361MeO     HB 2163   4.701   0.232   4.319
  361MeO     HC 2164   4.583   0.365   4.330
  361MeO      O 2165   4.614   0.288   4.140
  361MeO      H 2166   4.690   0.256   4.090
  362MeO      C 2167   3.211   1.551   3.858
  362MeO     HA 2168   3.128   1.597   3.805
  362MeO     HB 2169   3.178   1.520   3.957
  362MeO     HC 2170   3.289   1.627   3.870
  362MeO      O 2171   3.261   1.442   3.784
  362MeO      H 2172   3.301   1.479   3.704
  363MeO      C 2173   3.440   4.025   4.775
  363MeO     HA 2174   3.463   3.938   4.714
  363MeO     HB 2175   3.534   4.068   4.811
  363MeO     HC 2176   3.391   4.100   4.713
  363MeO      O 2177   3.357   3.991   4.885
  363MeO      H 2178   3.351   4.071   0.013
  364MeO      C 2179   1.743   4.586   1.469
  364MeO     HA 2180   1.710   4.486   1.440
  364MeO     HB 2181   1.658   4.638   1.513
  364MeO     HC 2182   1.821   4.577   1.544
  364MeO      O 2183   1.790   4.657   1.356
  364MeO      H 2184   1.715   4.665   1.295
  365MeO      C 2185   2.953   2.374   3.623
  365MeO     HA 2186   2.931   2.426   3.529
  365MeO     HB 2187   3.020   2.436   3.682
  365MeO     HC 2188   3.005   2.281   3.600
  365MeO      O 2189   2.834   2.347   3.694
  365MeO      H 2190   2.860   2.298   3.773
  366MeO      C 2191   1.139   1.549   2.714
  366MeO     HA 2192   1.247   1.547   2.729
  366MeO     HB 2193   1.093   1.478   2.784
  366MeO     HC 2194   1.102   1.648   2.738
  366MeO      O 2195   1.106   1.515   2.581
  366MeO      H 2196   1.010   1.521   2.575
  367MeO      C 2197   2.627   2.230   3.428
  367MeO     HA 2198   2.694   2.293   3.368
  367MeO     HB 2199   2.549   2.293   3.470
  367MeO     HC 2200   2.581   2.156   3.362
  367MeO      O 2201   2.700   2.166   3.530
  367MeO      H 2202   2.738   2.234   3.587
  368MeO      C 2203   1.717   1.678   3.390
  368MeO     HA 2204   1.644   1.637   3.459
  368MeO     HB 2205   1.706   1.787   3.389
  368MeO     HC 2206   1.817   1.654   3.425
  368MeO      O 2207   1.697   1.626   3.260
  368MeO      H 2208   1.704   1.530   3.269
  369MeO      C 2209   2.270   4.229   4.280
  369MeO     HA 2210   2.195   4.207   4.356
  369MeO     HB 2211   2.228   4.206   4.182
  369MeO     HC 2212   2.357   4.165   4.298
  369MeO      O 2213   2.308   4.365   4.287
  369MeO      H 2214   2.348   4.380   4.372
  370MeO      C 2215   2.520   2.786   1.647
  370MeO     HA 2216   2.584   2.815   1.731
  370MeO     HB 2217   2.560   2.695   1.603
  370MeO     HC 2218   2.524   2.866   1.573
  370MeO      O 2219   2.388   2.766   1.693
  370MeO      H 2220   2.391   2.689   1.752
  371MeO      C 2221   0.491   1.199   2.446
  371MeO     HA 2222   0.386   1.228   2.435
  371MeO     HB 2223   0.505   1.103   2.395
  371MeO     HC 2224   0.553   1.273   2.396
  371MeO      O 2225   0.527   1.188   2.582
  371MeO      H 2226   0.619   1.161   2.584
  372MeO      C 2227   3.956   2.411   0.776
  372MeO     HA 2228   3.962   2.408   0.667
  372MeO     HB 2229   3.954   2.308   0.813
  372MeO     HC 2230   3.863   2.460   0.803
  372MeO      O 2231   4.066   2.481   0.829
  372MeO      H 2232   4.056   2.573   0.799
  373MeO      C 2233   3.643   4.260   4.106
  373MeO     HA 2234   3.653   4.166   4.051
  373MeO     HB 2235   3.540   4.295   4.097
  373MeO     HC 2236   3.709   4.334   4.060
  373MeO      O 2237   3.677   4.242   4.242
  373MeO      H 2238   3.772   4.221   4.242
  374MeO      C 2239   0.876   4.460   3.345
  374MeO     HA 2240   0.842   4.358   3.365
  374MeO     HB 2241   0.796   4.514   3.294
  374MeO     HC 2242   0.896   4.508   3.441
  374MeO      O 2243   0.993   4.457   3.267
  374MeO      H 2244   1.057   4.403   3.314
  375MeO      C 2245   1.701   0.935   2.858
  375MeO     HA 2246   1.779   0.860   2.843
  375MeO     HB 2247   1.748   1.033   2.859
  375MeO     HC 2248   1.655   0.918   2.955
  375MeO      O 2249   1.605   0.927   2.755
  375MeO      H 2250   1.652   0.945   2.672
  376MeO      C 2251   0.782   2.938   3.902
  376MeO     HA 2252   0.848   2.994   3.836
  376MeO     HB 2253   0.782   2.834   3.871
  376MeO     HC 2254   0.821   2.944   4.003
  376MeO      O 2255   0.650   2.990   3.897
  376MeO      H 2256   0.597   2.937   3.957
  377MeO      C 2257   2.440   4.913   1.613
  377MeO     HA 2258   2.473   0.070   1.676
  377MeO     HB 2259   2.339   4.884   1.643
  377MeO     HC 2260   2.436   0.021   1.510
  377MeO      O 2261   2.527   4.802   1.625
  377MeO      H 2262   2.491   4.732   1.569
  378MeO      C 2263   4.548   0.778   0.925
  378MeO     HA 2264   4.653   0.794   0.948
  378MeO     HB 2265   4.541   0.739   0.823
  378MeO     HC 2266   4.497   0.874   0.929
  378MeO      O 2267   4.491   0.686   1.016
  378MeO      H 2268   4.539   0.603   1.006
  379MeO      C 2269   2.430   3.176   3.169
  379MeO     HA 2270   2.512   3.235   3.209
  379MeO     HB 2271   2.336   3.213   3.211
  379MeO     HC 2272   2.443   3.072   3.200
  379MeO      O 2273   2.426   3.184   3.027
  379MeO      H 2274   2.352   3.127   2.999
  380MeO      C 2275   4.706   4.708   1.770
  380MeO     HA 2276   4.738   4.695   1.666
  380MeO     HB 2277   4.654   4.803   1.778
  380MeO     HC 2278   4.637   4.628   1.795
  380MeO      O 2279   4.818   4.706   1.857
  380MeO      H 2280   4.783   4.721   1.946
  381MeO      C 2281   1.245   4.415   3.011
  381MeO     HA 2282   1.270   4.519   3.031
  381MeO     HB 2283   1.141   4.400   3.040
  381MeO     HC 2284   1.308   4.352   3.073
  381MeO      O 2285   1.263   4.385   2.875
  381MeO      H 2286   1.205   4.442   2.824
  382MeO      C 2287   4.441   2.888   4.063
  382MeO     HA 2288   4.366   2.809   4.061
  382MeO     HB 2289   4.539   2.843   4.080
  382MeO     HC 2290   4.418   2.956   4.145
  382MeO      O 2291   4.441   2.959   3.941
  382MeO      H 2292   4.351   2.988   3.925
  383MeO      C 2293   4.747   4.316   1.714
  383MeO     HA 2294   4.826   4.244   1.694
  383MeO     HB 2295   4.715   4.306   1.817
  383MeO     HC 2296   4.788   4.417   1.701
  383MeO      O 2297   4.639   4.295   1.627
  383MeO      H 2298   4.570   4.357   1.652
  384MeO      C 2299   3.826   3.371   1.222
  384MeO     HA 2300   3.760   3.299   1.269
  384MeO     HB 2301   3.787   3.471   1.240
  384MeO     HC 2302   3.924   3.363   1.269
  384MeO      O 2303   3.836   3.345   1.084
  384MeO      H 2304   3.860   3.252   1.075
  385MeO      C 2305   3.131   3.001   4.077
  385MeO     HA 2306   3.105   3.013   3.972
  385MeO     HB 2307   3.211   2.927   4.085
  385MeO     HC 2308   3.044   2.964   4.131
  385MeO      O 2309   3.173   3.125   4.131
  385MeO      H 2310   3.099   3.187   4.120
  386MeO      C 2311   3.778   3.755   4.816
  386MeO     HA 2312   3.801   3.675   4.745
  386MeO     HB 2313   3.670   3.769   4.819
  386MeO     HC 2314   3.823   3.848   4.780
  386MeO      O 2315   3.827   3.724   0.019
  386MeO      H 2316   3.809   3.801   0.075
  387MeO      C 2317   4.548   1.859   1.043
  387MeO     HA 2318   4.606   1.793   0.979
  387MeO     HB 2319   4.467   1.801   1.087
  387MeO     HC 2320   4.505   1.938   0.982
  387MeO      O 2321   4.630   1.912   1.144
  387MeO      H 2322   4.668   1.837   1.192
  388MeO      C 2323   2.282   4.568   3.053
  388MeO     HA 2324   2.327   4.654   3.004
  388MeO     HB 2325   2.327   4.477   3.012
  388MeO     HC 2326   2.305   4.573   3.159
  388MeO      O 2327   2.143   4.568   3.031
  388MeO      H 2328   2.130   4.563   2.936
  389MeO      C 2329   3.248   2.168   2.618
  389MeO     HA 2330   3.277   2.199   2.517
  389MeO     HB 2331   3.147   2.205   2.636
  389MeO     HC 2332   3.247   2.060   2.622
  389MeO      O 2333   3.338   2.221   2.713
  389MeO      H 2334   3.332   2.317   2.707
  390MeO      C 2335   4.804   2.323   0.809
  390MeO     HA 2336   4.798   2.406   0.881
  390MeO     HB 2337   4.759   2.235   0.855
  390MeO     HC 2338   4.909   2.302   0.789
  390MeO      O 2339   4.736   2.356   0.690
  390MeO      H 2340   4.643   2.368   0.713
  391MeO      C 2341   1.096   1.054   0.078
  391MeO     HA 2342   1.012   1.122   0.063
  391MeO     HB 2343   1.142   1.076   0.175
  391MeO     HC 2344   1.058   0.952   0.080
  391MeO      O 2345   1.191   1.069   4.900
  391MeO      H 2346   1.265   1.011   4.921
  392MeO      C 2347   0.246   3.126   4.247
  392MeO     HA 2348   0.196   3.092   4.338
  392MeO     HB 2349   0.252   3.042   4.178
  392MeO     HC 2350   0.347   3.158   4.273
  392MeO      O 2351   0.174   3.233   4.190
  392MeO      H 2352   0.174   3.305   4.254
  393MeO      C 2353   4.583   4.250   4.835
  393MeO     HA 2354   4.531   4.179   4.770
  393MeO     HB 2355   4.620   4.197   4.922
  393MeO     HC 2356   4.510   4.325   4.868
  393MeO      O 2357   4.688   4.312   4.764
  393MeO      H 2358   4.649   4.358   4.690
  394MeO      C 2359   4.698   4.574   0.605
  394MeO     HA 2360   4.622   4.652   0.594
  394MeO     HB 2361   4.757   4.596   0.694
  394MeO     HC 2362   4.764   4.577   0.519
  394MeO      O 2363   4.638   4.447   0.618
  394MeO      H 2364   4.710   4.384   0.631
  395MeO      C 2365   3.075   4.645   1.492
  395MeO     HA 2366   3.060   4.710   1.578
  395MeO     HB 2367   3.139   4.696   1.421
  395MeO     HC 2368   2.978   4.627   1.446
  395MeO      O 2369   3.133   4.523   1.533
  395MeO      H 2370   3.074   4.485   1.599
  396MeO      C 2371   0.159   3.803   0.123
  396MeO     HA 2372   0.084   3.813   0.201
  396MeO     HB 2373   0.110   3.800   0.026
  396MeO     HC 2374   0.213   3.709   0.138
  396MeO      O 2375   0.250   3.911   0.129
  396MeO      H 2376   0.290   3.909   0.216
  397MeO      C 2377   3.528   1.900   2.125
  397MeO     HA 2378   3.503   1.955   2.035
  397MeO     HB 2379   3.629   1.859   2.113
  397MeO     HC 2380   3.458   1.818   2.137
  397MeO      O 2381   3.525   1.986   2.237
  397MeO      H 2382   3.590   2.054   2.223
  398MeO      C 2383   2.952   3.189   0.325
  398MeO     HA 2384   2.997   3.138   0.411
  398MeO     HB 2385   3.031   3.242   0.272
  398MeO     HC 2386   2.879   3.261   0.361
  398MeO      O 2387   2.891   3.094   0.239
  398MeO      H 2388   2.960   3.034   0.209
  399MeO      C 2389   1.601   4.902   3.433
  399MeO     HA 2390   1.677   0.015   3.501
  399MeO     HB 2391   1.603   4.794   3.437
  399MeO     HC 2392   1.627   0.008   3.332
  399MeO      O 2393   1.474   0.024   3.469
  399MeO      H 2394   1.410   4.905   3.414
  400MeO      C 2395   1.767   2.994   0.060
  400MeO     HA 2396   1.851   3.061   0.077
  400MeO     HB 2397   1.804   2.900   0.020
  400MeO     HC 2398   1.702   3.040   4.910
  400MeO      O 2399   1.695   2.974   0.180
  400MeO      H 2400   1.661   3.061   0.203
  401MeO      C 2401   0.199   4.680   1.697
  401MeO     HA 2402   0.171   4.783   1.675
  401MeO     HB 2403   0.276   4.649   1.625
  401MeO     HC 2404   0.242   4.676   1.797
  401MeO      O 2405   0.086   4.596   1.689
  401MeO      H 2406   0.020   4.632   1.749
  402MeO      C 2407   3.950   3.445   0.692
  402MeO     HA 2408   3.861   3.381   0.689
  402MeO     HB 2409   3.942   3.510   0.779
  402MeO     HC 2410   4.038   3.382   0.703
  402MeO      O 2411   3.958   3.522   0.574
  402MeO      H 2412   3.877   3.575   0.570
  403MeO      C 2413   1.289   2.587   3.650
  403MeO     HA 2414   1.290   2.499   3.713
  403MeO     HB 2415   1.382   2.589   3.592
  403MeO     HC 2416   1.287   2.675   3.714
  403MeO      O 2417   1.178   2.584   3.563
  403MeO      H 2418   1.186   2.504   3.509
  404MeO      C 2419   2.882   0.850   0.830
  404MeO     HA 2420   2.909   0.901   0.737
  404MeO     HB 2421   2.915   0.912   0.913
  404MeO     HC 2422   2.934   0.755   0.834
  404MeO      O 2423   2.742   0.830   0.835
  404MeO      H 2424   2.700   0.917   0.832
  405MeO      C 2425   3.458   4.581   1.511
  405MeO     HA 2426   3.562   4.579   1.479
  405MeO     HB 2427   3.406   4.657   1.454
  405MeO     HC 2428   3.453   4.608   1.616
  405MeO      O 2429   3.397   4.455   1.490
  405MeO      H 2430   3.303   4.468   1.509
  406MeO      C 2431   4.427   3.668   2.396
  406MeO     HA 2432   4.416   3.610   2.304
  406MeO     HB 2433   4.329   3.674   2.444
  406MeO     HC 2434   4.459   3.769   2.370
  406MeO      O 2435   4.519   3.607   2.483
  406MeO      H 2436   4.486   3.518   2.500
  407MeO      C 2437   1.976   3.345   4.907
  407MeO     HA 2438   2.036   3.434   4.884
  407MeO     HB 2439   1.932   3.357   0.080
  407MeO     HC 2440   1.897   3.339   4.833
  407MeO      O 2441   2.057   3.230   4.902
  407MeO      H 2442   2.097   3.227   4.814
  408MeO      C 2443   3.841   4.426   0.906
  408MeO     HA 2444   3.894   4.400   0.998
  408MeO     HB 2445   3.757   4.490   0.932
  408MeO     HC 2446   3.803   4.335   0.861
  408MeO      O 2447   3.928   4.492   0.816
  408MeO      H 2448   4.001   4.432   0.798
  409MeO      C 2449   3.979   0.687   2.580
  409MeO     HA 2450   3.963   0.771   2.512
  409MeO     HB 2451   4.061   0.713   2.648
  409MeO     HC 2452   4.009   0.600   2.522
  409MeO      O 2453   3.861   0.660   2.654
  409MeO      H 2454   3.840   0.742   2.701
  410MeO      C 2455   0.680   0.288   0.831
  410MeO     HA 2456   0.649   0.363   0.759
  410MeO     HB 2457   0.695   0.337   0.927
  410MeO     HC 2458   0.775   0.245   0.799
  410MeO      O 2459   0.582   0.187   0.843
  410MeO      H 2460   0.502   0.230   0.875
  411MeO      C 2461   2.412   1.077   2.821
  411MeO     HA 2462   2.402   0.982   2.768
  411MeO     HB 2463   2.417   1.157   2.747
  411MeO     HC 2464   2.505   1.076   2.878
  411MeO      O 2465   2.301   1.097   2.906
  411MeO      H 2466   2.223   1.103   2.850
  412MeO      C 2467   1.305   4.628   1.773
  412MeO     HA 2468   1.282   4.657   1.875
  412MeO     HB 2469   1.219   4.577   1.731
  412MeO     HC 2470   1.325   4.718   1.715
  412MeO      O 2471   1.419   4.543   1.772
  412MeO      H 2472   1.491   4.594   1.811
  413MeO      C 2473   2.739   2.770   3.176
  413MeO     HA 2474   2.756   2.863   3.123
  413MeO     HB 2475   2.817   2.759   3.252
  413MeO     HC 2476   2.748   2.688   3.105
  413MeO      O 2477   2.612   2.771   3.236
  413MeO      H 2478   2.611   2.844   3.299
  414MeO      C 2479   0.547   3.924   2.755
  414MeO     HA 2480   0.541   3.832   2.696
  414MeO     HB 2481   0.528   4.009   2.690
  414MeO     HC 2482   0.649   3.932   2.794
  414MeO      O 2483   0.455   3.919   2.862
  414MeO      H 2484   0.476   3.839   2.912
  415MeO      C 2485   2.983   0.045   1.352
  415MeO     HA 2486   2.968   0.039   1.459
  415MeO     HB 2487   2.936   0.136   1.315
  415MeO     HC 2488   2.934   4.885   1.305
  415MeO      O 2489   3.121   0.045   1.322
  415MeO      H 2490   3.130   0.056   1.227
  416MeO      C 2491   1.655   3.577   1.139
  416MeO     HA 2492   1.764   3.578   1.152
  416MeO     HB 2493   1.612   3.656   1.201
  416MeO     HC 2494   1.618   3.481   1.173
  416MeO      O 2495   1.622   3.597   1.003
  416MeO      H 2496   1.668   3.528   0.953
  417MeO      C 2497   2.051   1.215   4.608
  417MeO     HA 2498   2.089   1.117   4.638
  417MeO     HB 2499   2.126   1.290   4.632
  417MeO     HC 2500   2.035   1.214   4.500
  417MeO      O 2501   1.930   1.243   4.675
  417MeO      H 2502   1.868   1.172   4.653
  418MeO      C 2503   0.155   0.582   4.269
  418MeO     HA 2504   0.053   0.580   4.232
  418MeO     HB 2505   0.154   0.621   4.371
  418MeO     HC 2506   0.194   0.480   4.272
  418MeO      O 2507   0.235   0.664   4.187
  418MeO      H 2508   0.198   0.752   4.192
  419MeO      C 2509   3.063   1.889   1.396
  419MeO     HA 2510   3.078   1.842   1.298
  419MeO     HB 2511   3.075   1.813   1.473
  419MeO     HC 2512   2.962   1.928   1.400
  419MeO      O 2513   3.156   1.994   1.414
  419MeO      H 2514   3.140   2.058   1.343
  420MeO      C 2515   3.977   2.689   3.811
  420MeO     HA 2516   4.067   2.660   3.865
  420MeO     HB 2517   3.945   2.786   3.848
  420MeO     HC 2518   3.899   2.616   3.832
  420MeO      O 2519   4.004   2.696   3.673
  420MeO      H 2520   4.077   2.758   3.663
  421MeO      C 2521   3.504   1.565   2.390
  421MeO     HA 2522   3.488   1.594   2.287
  421MeO     HB 2523   3.432   1.617   2.452
  421MeO     HC 2524   3.487   1.458   2.400
  421MeO      O 2525   3.637   1.596   2.430
  421MeO      H 2526   3.695   1.549   2.370
  422MeO      C 2527   0.592   4.505   2.163
  422MeO     HA 2528   0.521   4.568   2.110
  422MeO     HB 2529   0.595   4.537   2.267
  422MeO     HC 2530   0.557   4.402   2.159
  422MeO      O 2531   0.720   4.518   2.104
  422MeO      H 2532   0.745   4.610   2.113
  423MeO      C 2533   3.270   1.966   0.633
  423MeO     HA 2534   3.328   1.987   0.543
  423MeO     HB 2535   3.323   1.892   0.692
  423MeO     HC 2536   3.261   2.058   0.691
  423MeO      O 2537   3.142   1.917   0.597
  423MeO      H 2538   3.159   1.838   0.543
  424MeO      C 2539   0.360   0.873   2.548
  424MeO     HA 2540   0.390   0.840   2.448
  424MeO     HB 2541   0.315   0.972   2.539
  424MeO     HC 2542   0.449   0.881   2.611
  424MeO      O 2543   0.267   0.783   2.603
  424MeO      H 2544   0.193   0.776   2.541
  425MeO      C 2545   3.364   4.916   2.227
  425MeO     HA 2546   3.406   0.062   2.157
  425MeO     HB 2547   3.382   0.026   2.329
  425MeO     HC 2548   3.416   4.821   2.215
  425MeO      O 2549   3.226   4.898   2.204
  425MeO      H 2550   3.197   4.830   2.266
  426MeO      C 2551   1.352   2.352   2.244
  426MeO     HA 2552   1.252   2.350   2.286
  426MeO     HB 2553   1.419   2.401   2.316
  426MeO     HC 2554   1.351   2.410   2.152
  426MeO      O 2555   1.398   2.220   2.218
  426MeO      H 2556   1.487   2.229   2.181
  427MeO      C 2557   0.691   4.803   1.035
  427MeO     HA 2558   0.664   4.800   0.929
  427MeO     HB 2559   0.615   4.861   1.087
  427MeO     HC 2560   0.787   4.855   1.044
  427MeO      O 2561   0.699   4.673   1.088
  427MeO      H 2562   0.612   4.633   1.076
  428MeO      C 2563   0.500   2.696   0.355
  428MeO     HA 2564   0.404   2.645   0.366
  428MeO     HB 2565   0.504   2.777   0.427
  428MeO     HC 2566   0.505   2.739   0.255
  428MeO      O 2567   0.606   2.605   0.376
  428MeO      H 2568   0.597   2.572   0.466
  429MeO      C 2569   0.780   0.665   1.454
  429MeO     HA 2570   0.868   0.679   1.517
  429MeO     HB 2571   0.731   0.573   1.485
  429MeO     HC 2572   0.812   0.655   1.351
  429MeO      O 2573   0.692   0.775   1.469
  429MeO      H 2574   0.668   0.779   1.563
  430MeO      C 2575   1.744   2.181   2.189
  430MeO     HA 2576   1.797   2.105   2.130
  430MeO     HB 2577   1.701   2.133   2.276
  430MeO     HC 2578   1.816   2.255   2.222
  430MeO      O 2579   1.644   2.242   2.110
  430MeO      H 2580   1.689   2.283   2.035
  431MeO      C 2581   2.773   1.277   2.245
  431MeO     HA 2582   2.840   1.217   2.307
  431MeO     HB 2583   2.710   1.337   2.310
  431MeO     HC 2584   2.834   1.343   2.183
  431MeO      O 2585   2.694   1.192   2.164
  431MeO      H 2586   2.755   1.144   2.105
  432MeO      C 2587   4.539   3.120   4.838
  432MeO     HA 2588   4.483   3.027   4.832
  432MeO     HB 2589   4.474   3.197   4.878
  432MeO     HC 2590   4.569   3.149   4.737
  432MeO      O 2591   4.652   3.104   4.921
  432MeO      H 2592   4.618   3.088   0.084
  433MeO      C 2593   4.385   3.957   2.619
  433MeO     HA 2594   4.420   3.854   2.627
  433MeO     HB 2595   4.469   4.021   2.591
  433MeO     HC 2596   4.349   3.988   2.717
  433MeO      O 2597   4.281   3.966   2.523
  433MeO      H 2598   4.211   3.907   2.553
  434MeO      C 2599   1.481   3.260   0.505
  434MeO     HA 2600   1.514   3.362   0.523
  434MeO     HB 2601   1.568   3.199   0.482
  434MeO     HC 2602   1.414   3.260   0.419
  434MeO      O 2603   1.413   3.210   0.618
  434MeO      H 2604   1.342   3.273   0.637
  435MeO      C 2605   3.151   4.602   4.492
  435MeO     HA 2606   3.141   4.629   4.387
  435MeO     HB 2607   3.067   4.644   4.547
  435MeO     HC 2608   3.146   4.493   4.500
  435MeO      O 2609   3.273   4.650   4.544
  435MeO      H 2610   3.273   4.745   4.532
  436MeO      C 2611   4.888   3.357   0.031
  436MeO     HA 2612   0.024   3.444   0.008
  436MeO     HB 2613   0.028   3.270   0.041
  436MeO     HC 2614   4.839   3.373   0.127
  436MeO      O 2615   4.793   3.335   4.855
  436MeO      H 2616   4.744   3.256   4.879
  437MeO      C 2617   2.576   3.588   3.424
  437MeO     HA 2618   2.551   3.680   3.370
  437MeO     HB 2619   2.619   3.517   3.354
  437MeO     HC 2620   2.650   3.612   3.500
  437MeO      O 2621   2.460   3.534   3.484
  437MeO      H 2622   2.422   3.603   3.540
  438MeO      C 2623   3.664   0.989   4.481
  438MeO     HA 2624   3.679   0.893   4.432
  438MeO     HB 2625   3.761   1.034   4.500
  438MeO     HC 2626   3.615   0.972   4.577
  438MeO      O 2627   3.586   1.075   4.400
  438MeO      H 2628   3.573   1.156   4.450
  439MeO      C 2629   1.008   2.515   2.787
  439MeO     HA 2630   0.999   2.482   2.891
  439MeO     HB 2631   0.910   2.542   2.750
  439MeO     HC 2632   1.072   2.603   2.786
  439MeO      O 2633   1.065   2.412   2.708
  439MeO      H 2634   1.151   2.391   2.746
  440MeO      C 2635   1.420   1.174   1.368
  440MeO     HA 2636   1.480   1.225   1.443
  440MeO     HB 2637   1.315   1.180   1.398
  440MeO     HC 2638   1.431   1.227   1.273
  440MeO      O 2639   1.459   1.040   1.355
  440MeO      H 2640   1.448   0.999   1.442
  441MeO      C 2641   4.163   1.523   4.196
  441MeO     HA 2642   4.217   1.461   4.267
  441MeO     HB 2643   4.188   1.490   4.095
  441MeO     HC 2644   4.056   1.508   4.211
  441MeO      O 2645   4.196   1.659   4.215
  441MeO      H 2646   4.168   1.681   4.304
  442MeO      C 2647   3.552   4.526   4.405
  442MeO     HA 2648   3.457   4.472   4.400
  442MeO     HB 2649   3.571   4.571   4.308
  442MeO     HC 2650   3.543   4.605   4.479
  442MeO      O 2651   3.656   4.437   4.439
  442MeO      H 2652   3.658   4.368   4.372
  443MeO      C 2653   0.710   1.493   2.549
  443MeO     HA 2654   0.669   1.519   2.451
  443MeO     HB 2655   0.721   1.385   2.555
  443MeO     HC 2656   0.638   1.525   2.625
  443MeO      O 2657   0.834   1.558   2.569
  443MeO      H 2658   0.814   1.653   2.568
  444MeO      C 2659   4.115   3.643   4.375
  444MeO     HA 2660   4.148   3.602   4.470
  444MeO     HB 2661   4.190   3.714   4.340
  444MeO     HC 2662   4.109   3.561   4.303
  444MeO      O 2663   3.990   3.707   4.388
  444MeO      H 2664   4.002   3.772   4.459
  445MeO      C 2665   1.222   0.688   2.062
  445MeO     HA 2666   1.118   0.670   2.034
  445MeO     HB 2667   1.286   0.648   1.984
  445MeO     HC 2668   1.241   0.634   2.155
  445MeO      O 2669   1.244   0.826   2.080
  445MeO      H 2670   1.181   0.857   2.145
  446MeO      C 2671   2.245   3.868   1.591
  446MeO     HA 2672   2.267   3.958   1.649
  446MeO     HB 2673   2.137   3.849   1.594
  446MeO     HC 2674   2.274   3.885   1.488
  446MeO      O 2675   2.316   3.758   1.643
  446MeO      H 2676   2.410   3.780   1.637
  447MeO      C 2677   4.112   4.771   0.782
  447MeO     HA 2678   4.174   4.851   0.741
  447MeO     HB 2679   4.029   4.816   0.837
  447MeO     HC 2680   4.172   4.713   0.853
  447MeO      O 2681   4.064   4.687   0.679
  447MeO      H 2682   4.008   4.622   0.722
  448MeO      C 2683   2.017   1.703   2.249
  448MeO     HA 2684   1.911   1.720   2.236
  448MeO     HB 2685   2.050   1.629   2.176
  448MeO     HC 2686   2.034   1.661   2.349
  448MeO      O 2687   2.090   1.823   2.234
  448MeO      H 2688   2.184   1.798   2.233
  449MeO      C 2689   0.914   4.203   2.990
  449MeO     HA 2690   1.008   4.152   3.011
  449MeO     HB 2691   0.922   4.307   3.022
  449MeO     HC 2692   0.835   4.156   3.049
  449MeO      O 2693   0.881   4.197   2.853
  449MeO      H 2694   0.804   4.253   2.842
  450MeO      C 2695   4.427   1.916   1.886
  450MeO     HA 2696   4.379   1.869   1.972
  450MeO     HB 2697   4.501   1.846   1.847
  450MeO     HC 2698   4.351   1.932   1.809
  450MeO      O 2699   4.488   2.037   1.923
  450MeO      H 2700   4.553   2.016   1.991
  451MeO      C 2701   3.582   0.281   1.166
  451MeO     HA 2702   3.497   0.317   1.109
  451MeO     HB 2703   3.548   0.250   1.265
  451MeO     HC 2704   3.653   0.363   1.178
  451MeO      O 2705   3.643   0.172   1.099
  451MeO      H 2706   3.675   0.208   1.014
  452MeO      C 2707   2.828   1.720   3.913
  452MeO     HA 2708   2.797   1.708   4.017
  452MeO     HB 2709   2.740   1.711   3.850
  452MeO     HC 2710   2.898   1.640   3.888
  452MeO      O 2711   2.887   1.847   3.896
  452MeO      H 2712   2.821   1.911   3.923
  453MeO      C 2713   2.627   1.170   1.510
  453MeO     HA 2714   2.597   1.108   1.595
  453MeO     HB 2715   2.736   1.168   1.502
  453MeO     HC 2716   2.584   1.128   1.419
  453MeO      O 2717   2.581   1.302   1.528
  453MeO      H 2718   2.485   1.298   1.530
  454MeO      C 2719   2.076   3.472   0.340
  454MeO     HA 2720   2.034   3.403   0.413
  454MeO     HB 2721   2.157   3.528   0.386
  454MeO     HC 2722   2.117   3.414   0.257
  454MeO      O 2723   1.977   3.561   0.292
  454MeO      H 2724   2.017   3.610   0.219
  455MeO      C 2725   1.370   1.626   1.518
  455MeO     HA 2726   1.461   1.684   1.500
  455MeO     HB 2727   1.363   1.603   1.624
  455MeO     HC 2728   1.284   1.687   1.490
  455MeO      O 2729   1.371   1.507   1.442
  455MeO      H 2730   1.286   1.464   1.457
  456MeO      C 2731   1.224   0.655   4.224
  456MeO     HA 2732   1.288   0.569   4.244
  456MeO     HB 2733   1.128   0.639   4.273
  456MeO     HC 2734   1.271   0.744   4.266
  456MeO      O 2735   1.207   0.671   4.085
  456MeO      H 2736   1.294   0.688   4.048
  457MeO      C 2737   2.200   3.535   2.834
  457MeO     HA 2738   2.191   3.426   2.838
  457MeO     HB 2739   2.101   3.578   2.850
  457MeO     HC 2740   2.236   3.564   2.736
  457MeO      O 2741   2.289   3.580   2.934
  457MeO      H 2742   2.372   3.534   2.919
  458MeO      C 2743   0.004   0.629   2.959
  458MeO     HA 2744   0.001   0.660   2.855
  458MeO     HB 2745   0.036   0.714   3.020
  458MeO     HC 2746   0.078   0.550   2.970
  458MeO      O 2747   4.803   0.583   3.002
  458MeO      H 2748   4.813   0.558   3.095
  459MeO      C 2749   4.218   0.786   0.030
  459MeO     HA 2750   4.222   0.801   4.847
  459MeO     HB 2751   4.250   0.684   0.052
  459MeO     HC 2752   4.288   0.855   0.076
  459MeO      O 2753   4.088   0.809   0.078
  459MeO      H 2754   4.064   0.898   0.049
  460MeO      C 2755   3.156   0.739   1.847
  460MeO     HA 2756   3.202   0.668   1.916
  460MeO     HB 2757   3.218   0.828   1.841
  460MeO     HC 2758   3.059   0.767   1.888
  460MeO      O 2759   3.139   0.680   1.720
  460MeO      H 2760   3.085   0.601   1.735
  461MeO      C 2761   2.919   4.279   3.864
  461MeO     HA 2762   2.930   4.382   3.832
  461MeO     HB 2763   2.812   4.257   3.874
  461MeO     HC 2764   2.960   4.214   3.787
  461MeO      O 2765   2.986   4.256   3.986
  461MeO      H 2766   2.975   4.163   4.008
  462MeO      C 2767   1.231   3.037   3.282
  462MeO     HA 2768   1.133   3.048   3.327
  462MeO     HB 2769   1.262   2.933   3.293
  462MeO     HC 2770   1.302   3.101   3.335
  462MeO      O 2771   1.226   3.072   3.145
  462MeO      H 2772   1.162   3.013   3.103
  463MeO      C 2773   0.200   2.541   0.152
  463MeO     HA 2774   0.258   2.509   0.066
  463MeO     HB 2775   0.097   2.507   0.140
  463MeO     HC 2776   0.242   2.495   0.242
  463MeO      O 2777   0.203   2.682   0.162
  463MeO      H 2778   0.165   2.716   0.080
  464MeO      C 2779   1.446   1.959   2.434
  464MeO     HA 2780   1.450   1.897   2.523
  464MeO     HB 2781   1.545   1.962   2.389
  464MeO     HC 2782   1.377   1.914   2.363
  464MeO      O 2783   1.404   2.090   2.466
  464MeO      H 2784   1.397   2.138   2.383
  465MeO      C 2785   1.172   4.769   4.664
  465MeO     HA 2786   1.251   4.724   4.604
  465MeO     HB 2787   1.181   4.733   4.766
  465MeO     HC 2788   1.186   4.877   4.663
  465MeO      O 2789   1.045   4.736   4.610
  465MeO      H 2790   1.043   4.771   4.521
  466MeO      C 2791   1.916   3.279   2.029
  466MeO     HA 2792   1.954   3.369   2.077
  466MeO     HB 2793   1.821   3.303   1.980
  466MeO     HC 2794   1.897   3.205   2.106
  466MeO      O 2795   2.009   3.231   1.935
  466MeO      H 2796   2.090   3.209   1.982
  467MeO      C 2797   4.830   3.241   3.984
  467MeO     HA 2798   4.769   3.242   3.894
  467MeO     HB 2799   4.796   3.161   4.050
  467MeO     HC 2800   4.817   3.336   4.037
  467MeO      O 2801   0.041   3.222   3.952
  467MeO      H 2802   0.090   3.223   4.035
  468MeO      C 2803   4.320   0.046   1.914
  468MeO     HA 2804   4.319   4.887   1.982
  468MeO     HB 2805   4.229   0.043   1.854
  468MeO     HC 2806   4.320   0.137   1.973
  468MeO      O 2807   4.435   0.042   1.832
  468MeO      H 2808   4.510   0.057   1.890
  469MeO      C 2809   0.408   2.088   2.849
  469MeO     HA 2810   0.513   2.069   2.870
  469MeO     HB 2811   0.372   2.164   2.918
  469MeO     HC 2812   0.352   1.996   2.866
  469MeO      O 2813   0.391   2.132   2.716
  469MeO      H 2814   0.295   2.138   2.702
  470MeO      C 2815   3.473   4.527   2.313
  470MeO     HA 2816   3.532   4.616   2.295
  470MeO     HB 2817   3.368   4.549   2.292
  470MeO     HC 2818   3.482   4.500   2.418
  470MeO      O 2819   3.517   4.420   2.233
  470MeO      H 2820   3.458   4.346   2.249
  471MeO      C 2821   0.358   4.111   4.664
  471MeO     HA 2822   0.425   4.027   4.647
  471MeO     HB 2823   0.417   4.198   4.693
  471MeO     HC 2824   0.291   4.085   4.747
  471MeO      O 2825   0.283   4.139   4.549
  471MeO      H 2826   0.225   4.214   4.570
  472MeO      C 2827   1.026   0.448   0.599
  472MeO     HA 2828   1.010   0.547   0.557
  472MeO     HB 2829   0.936   0.417   0.652
  472MeO     HC 2830   1.043   0.378   0.517
  472MeO      O 2831   1.138   0.449   0.686
  472MeO      H 2832   1.214   0.474   0.632
  473MeO      C 2833   1.575   4.683   2.025
  473MeO     HA 2834   1.505   4.601   2.040
  473MeO     HB 2835   1.657   4.673   2.096
  473MeO     HC 2836   1.524   4.777   2.045
  473MeO      O 2837   1.626   4.682   1.892
  473MeO      H 2838   1.694   4.751   1.890
  474MeO      C 2839   3.795   0.784   0.953
  474MeO     HA 2840   3.893   0.774   0.999
  474MeO     HB 2841   3.727   0.823   1.028
  474MeO     HC 2842   3.760   0.686   0.922
  474MeO      O 2843   3.803   0.872   0.842
  474MeO      H 2844   3.835   0.956   0.876
  475MeO      C 2845   3.680   1.726   4.392
  475MeO     HA 2846   3.774   1.689   4.351
  475MeO     HB 2847   3.620   1.767   4.310
  475MeO     HC 2848   3.625   1.643   4.436
  475MeO      O 2849   3.704   1.825   4.489
  475MeO      H 2850   3.619   1.849   4.527
  476MeO      C 2851   1.662   3.287   0.851
  476MeO     HA 2852   1.655   3.260   0.746
  476MeO     HB 2853   1.563   3.314   0.887
  476MeO     HC 2854   1.696   3.200   0.906
  476MeO      O 2855   1.752   3.394   0.868
  476MeO      H 2856   1.835   3.367   0.825
  477MeO      C 2857   2.032   0.144   0.366
  477MeO     HA 2858   2.028   0.071   0.447
  477MeO     HB 2859   1.948   0.125   0.299
  477MeO     HC 2860   2.125   0.130   0.311
  477MeO      O 2861   2.024   0.275   0.419
  477MeO      H 2862   1.940   0.279   0.467
  478MeO      C 2863   1.462   4.133   4.182
  478MeO     HA 2864   1.428   4.097   4.279
  478MeO     HB 2865   1.374   4.162   4.123
  478MeO     HC 2866   1.524   4.221   4.197
  478MeO      O 2867   1.534   4.032   4.115
  478MeO      H 2868   1.475   3.957   4.106
  479MeO      C 2869   1.769   0.357   0.660
  479MeO     HA 2870   1.866   0.398   0.688
  479MeO     HB 2871   1.703   0.439   0.632
  479MeO     HC 2872   1.727   0.305   0.746
  479MeO      O 2873   1.782   0.267   0.552
  479MeO      H 2874   1.697   0.222   0.545
  480MeO      C 2875   2.102   3.363   0.732
  480MeO     HA 2876   2.143   3.383   0.633
  480MeO     HB 2877   2.169   3.293   0.783
  480MeO     HC 2878   2.101   3.456   0.789
  480MeO      O 2879   1.973   3.308   0.723
  480MeO      H 2880   1.980   3.229   0.669
  481MeO      C 2881   1.798   4.356   1.123
  481MeO     HA 2882   1.752   4.381   1.218
  481MeO     HB 2883   1.882   4.424   1.107
  481MeO     HC 2884   1.725   4.371   1.044
  481MeO      O 2885   1.843   4.223   1.125
  481MeO      H 2886   1.904   4.215   1.199
  482MeO      C 2887   2.335   4.511   4.840
  482MeO     HA 2888   2.426   4.452   4.825
  482MeO     HB 2889   2.341   4.558   0.012
  482MeO     HC 2890   2.331   4.588   4.764
  482MeO      O 2891   2.221   4.428   4.833
  482MeO      H 2892   2.230   4.363   4.905
  483MeO      C 2893   4.112   2.259   1.813
  483MeO     HA 2894   4.201   2.208   1.852
  483MeO     HB 2895   4.141   2.319   1.727
  483MeO     HC 2896   4.041   2.184   1.781
  483MeO      O 2897   4.055   2.341   1.913
  483MeO      H 2898   4.031   2.282   1.986
  484MeO      C 2899   0.333   3.663   1.366
  484MeO     HA 2900   0.392   3.612   1.442
  484MeO     HB 2901   0.347   3.611   1.271
  484MeO     HC 2902   0.228   3.655   1.394
  484MeO      O 2903   0.372   3.797   1.354
  484MeO      H 2904   0.467   3.798   1.336
  485MeO      C 2905   3.842   4.364   3.362
  485MeO     HA 2906   3.802   4.460   3.330
  485MeO     HB 2907   3.824   4.353   3.469
  485MeO     HC 2908   3.949   4.363   3.345
  485MeO      O 2909   3.780   4.259   3.290
  485MeO      H 2910   3.823   4.177   3.316
  486MeO      C 2911   2.975   3.079   1.604
  486MeO     HA 2912   3.025   3.155   1.544
  486MeO     HB 2913   2.875   3.115   1.630
  486MeO     HC 2914   3.031   3.065   1.697
  486MeO      O 2915   2.967   2.957   1.534
  486MeO      H 2916   2.922   2.894   1.592
  487MeO      C 2917   4.104   3.207   2.608
  487MeO     HA 2918   4.013   3.237   2.659
  487MeO     HB 2919   4.083   3.116   2.552
  487MeO     HC 2920   4.181   3.185   2.682
  487MeO      O 2921   4.148   3.308   2.520
  487MeO      H 2922   4.077   3.322   2.456
  488MeO      C 2923   2.015   2.098   2.916
  488MeO     HA 2924   2.073   2.066   3.002
  488MeO     HB 2925   1.909   2.092   2.941
  488MeO     HC 2926   2.035   2.030   2.834
  488MeO      O 2927   2.049   2.231   2.880
  488MeO      H 2928   2.027   2.288   2.955
  489MeO      C 2929   1.096   1.817   2.428
  489MeO     HA 2930   1.114   1.839   2.533
  489MeO     HB 2931   1.114   1.907   2.370
  489MeO     HC 2932   0.991   1.789   2.417
  489MeO      O 2933   1.180   1.712   2.386
  489MeO      H 2934   1.163   1.638   2.445
  490MeO      C 2935   4.916   2.102   1.160
  490MeO     HA 2936   0.031   2.013   1.111
  490MeO     HB 2937   4.909   2.082   1.267
  490MeO     HC 2938   0.059   2.185   1.145
  490MeO      O 2939   4.788   2.132   1.107
  490MeO      H 2940   4.734   2.053   1.119
  491MeO      C 2941   3.844   2.120   2.624
  491MeO     HA 2942   3.819   2.038   2.691
  491MeO     HB 2943   3.775   2.120   2.540
  491MeO     HC 2944   3.945   2.104   2.585
  491MeO      O 2945   3.837   2.244   2.693
  491MeO      H 2946   3.857   2.313   2.629
  492MeO      C 2947   3.622   3.446   2.048
  492MeO     HA 2948   3.676   3.525   1.997
  492MeO     HB 2949   3.695   3.372   2.082
  492MeO     HC 2950   3.555   3.398   1.977
  492MeO      O 2951   3.549   3.497   2.157
  492MeO      H 2952   3.496   3.424   2.193
  493MeO      C 2953   3.965   0.992   1.748
  493MeO     HA 2954   3.973   0.885   1.763
  493MeO     HB 2955   4.012   1.018   1.654
  493MeO     HC 2956   4.018   1.043   1.829
  493MeO      O 2957   3.829   1.032   1.747
  493MeO      H 2958   3.827   1.128   1.740
  494MeO      C 2959   4.204   2.566   1.539
  494MeO     HA 2960   4.263   2.585   1.449
  494MeO     HB 2961   4.118   2.505   1.511
  494MeO     HC 2962   4.265   2.509   1.609
  494MeO      O 2963   4.162   2.686   1.598
  494MeO      H 2964   4.108   2.662   1.674
  495MeO      C 2965   1.698   3.314   3.416
  495MeO     HA 2966   1.614   3.302   3.347
  495MeO     HB 2967   1.660   3.300   3.518
  495MeO     HC 2968   1.737   3.415   3.407
  495MeO      O 2969   1.798   3.219   3.389
  495MeO      H 2970   1.756   3.132   3.396
  496MeO      C 2971   0.087   2.910   0.382
  496MeO     HA 2972   0.084   2.987   0.459
  496MeO     HB 2973   0.039   2.949   0.291
  496MeO     HC 2974   0.031   2.824   0.416
  496MeO      O 2975   0.221   2.873   0.354
  496MeO      H 2976   0.216   2.803   0.288
  497MeO      C 2977   3.773   4.808   3.441
  497MeO     HA 2978   3.846   4.887   3.459
  497MeO     HB 2979   3.802   4.719   3.498
  497MeO     HC 2980   3.775   4.783   3.335
  497MeO      O 2981   3.644   4.851   3.480
  497MeO      H 2982   3.624   0.003   3.427
  498MeO      C 2983   4.837   4.014   4.591
  498MeO     HA 2984   4.896   3.994   4.681
  498MeO     HB 2985   4.750   4.073   4.621
  498MeO     HC 2986   4.897   4.074   4.523
  498MeO      O 2987   4.796   3.894   4.530
  498MeO      H 2988   4.743   3.846   4.596
  499MeO      C 2989   3.216   4.916   3.990
  499MeO     HA 2990   3.132   4.846   3.992
  499MeO     HB 2991   3.273   4.900   3.899
  499MeO     HC 2992   3.280   4.895   4.075
  499MeO      O 2993   3.169   0.124   3.995
  499MeO      H 2994   3.248   0.180   3.993
  500MeO      C 2995   2.131   1.303   4.095
  500MeO     HA 2996   2.058   1.230   4.060
  500MeO     HB 2997   2.079   1.382   4.149
  500MeO     HC 2998   2.200   1.254   4.163
  500MeO      O 2999   2.203   1.357   3.985
  500MeO      H 3000   2.260   1.426   4.020
  501MeO      C 3001   2.911   0.936   2.523
  501MeO     HA 3002   3.001   0.971   2.473
  501MeO     HB 3003   2.825   0.963   2.461
  501MeO     HC 3004   2.916   0.827   2.530
  501MeO      O 3005   2.900   0.994   2.651
  501MeO      H 3006   2.896   1.089   2.637
  502MeO      C 3007   1.745   3.658   3.600
  502MeO     HA 3008   1.849   3.661   3.567
  502MeO     HB 3009   1.682   3.631   3.516
  502MeO     HC 3010   1.717   3.758   3.634
  502MeO      O 3011   1.730   3.565   3.705
  502MeO      H 3012   1.782   3.598   3.780
  503MeO      C 3013   0.872   1.324   1.252
  503MeO     HA 3014   0.902   1.428   1.248
  503MeO     HB 3015   0.919   1.270   1.170
  503MeO     HC 3016   0.764   1.318   1.240
  503MeO      O 3017   0.909   1.266   1.376
  503MeO      H 3018   0.881   1.175   1.375
  504MeO      C 3019   0.100   0.535   1.863
  504MeO     HA 3020   0.021   0.601   1.829
  504MeO     HB 3021   0.101   0.534   1.972
  504MeO     HC 3022   0.080   0.435   1.828
  504MeO      O 3023   0.225   0.579   1.814
  504MeO      H 3024   0.291   0.515   1.842
  505MeO      C 3025   2.931   2.741   2.736
  505MeO     HA 3026   2.922   2.787   2.835
  505MeO     HB 3027   2.865   2.793   2.667
  505MeO     HC 3028   3.034   2.752   2.702
  505MeO      O 3029   2.895   2.604   2.743
  505MeO      H 3030   2.804   2.600   2.773
  506MeO      C 3031   0.997   3.553   2.521
  506MeO     HA 3032   1.076   3.585   2.453
  506MeO     HB 3033   1.044   3.524   2.615
  506MeO     HC 3034   0.931   3.638   2.540
  506MeO      O 3035   0.925   3.445   2.466
  506MeO      H 3036   0.988   3.373   2.454
  507MeO      C 3037   1.896   2.977   3.120
  507MeO     HA 3038   1.839   2.923   3.195
  507MeO     HB 3039   1.839   2.981   3.028
  507MeO     HC 3040   1.913   3.079   3.156
  507MeO      O 3041   2.020   2.912   3.097
  507MeO      H 3042   1.999   2.823   3.066
  508MeO      C 3043   3.489   3.793   1.480
  508MeO     HA 3044   3.414   3.750   1.547
  508MeO     HB 3045   3.440   3.821   1.387
  508MeO     HC 3046   3.530   3.882   1.526
  508MeO      O 3047   3.591   3.699   1.455
  508MeO      H 3048   3.549   3.622   1.414
  509MeO      C 3049   1.824   1.115   3.802
  509MeO     HA 3050   1.790   1.131   3.700
  509MeO     HB 3051   1.902   1.188   3.825
  509MeO     HC 3052   1.867   1.016   3.810
  509MeO      O 3053   1.717   1.129   3.893
  509MeO      H 3054   1.754   1.119   3.982
  510MeO      C 3055   3.306   1.030   0.080
  510MeO     HA 3056   3.411   1.000   0.075
  510MeO     HB 3057   3.278   1.044   0.184
  510MeO     HC 3058   3.246   0.949   0.039
  510MeO      O 3059   3.285   1.148   0.007
  510MeO      H 3060   3.191   1.168   0.012
  511MeO      C 3061   1.775   0.907   4.629
  511MeO     HA 3062   1.682   0.850   4.630
  511MeO     HB 3063   1.831   0.882   4.719
  511MeO     HC 3064   1.834   0.877   4.542
  511MeO      O 3065   1.747   1.045   4.625
  511MeO      H 3066   1.689   1.063   4.700
  512MeO      C 3067   2.220   1.181   1.507
  512MeO     HA 3068   2.268   1.109   1.441
  512MeO     HB 3069   2.133   1.221   1.456
  512MeO     HC 3070   2.186   1.129   1.596
  512MeO      O 3071   2.309   1.285   1.541
  512MeO      H 3072   2.259   1.347   1.596
  513MeO      C 3073   0.322   4.500   3.125
  513MeO     HA 3074   0.360   4.602   3.133
  513MeO     HB 3075   0.301   4.463   3.225
  513MeO     HC 3076   0.400   4.438   3.081
  513MeO      O 3077   0.206   4.497   3.044
  513MeO      H 3078   0.230   4.542   2.962
  514MeO      C 3079   3.682   4.379   2.711
  514MeO     HA 3080   3.756   4.346   2.785
  514MeO     HB 3081   3.719   4.353   2.612
  514MeO     HC 3082   3.673   4.488   2.718
  514MeO      O 3083   3.558   4.317   2.736
  514MeO      H 3084   3.529   4.344   2.824
  515MeO      C 3085   4.467   1.662   1.558
  515MeO     HA 3086   4.526   1.651   1.467
  515MeO     HB 3087   4.527   1.627   1.642
  515MeO     HC 3088   4.444   1.767   1.573
  515MeO      O 3089   4.348   1.586   1.549
  515MeO      H 3090   4.374   1.493   1.542
  516MeO      C 3091   2.575   1.486   0.143
  516MeO     HA 3092   2.610   1.408   0.075
  516MeO     HB 3093   2.535   1.568   0.085
  516MeO     HC 3094   2.495   1.445   0.205
  516MeO      O 3095   2.682   1.531   0.225
  516MeO      H 3096   2.644   1.594   0.287
  517MeO      C 3097   1.916   2.662   2.874
  517MeO     HA 3098   1.973   2.603   2.802
  517MeO     HB 3099   1.816   2.618   2.882
  517MeO     HC 3100   1.906   2.763   2.836
  517MeO      O 3101   1.979   2.661   3.000
  517MeO      H 3102   1.988   2.569   3.026
  518MeO      C 3103   2.447   1.661   0.470
  518MeO     HA 3104   2.375   1.742   0.472
  518MeO     HB 3105   2.467   1.630   0.572
  518MeO     HC 3106   2.403   1.577   0.416
  518MeO      O 3107   2.567   1.704   0.407
  518MeO      H 3108   2.601   1.777   0.460
  519MeO      C 3109   2.314   1.511   4.423
  519MeO     HA 3110   2.375   1.528   4.335
  519MeO     HB 3111   2.381   1.491   4.508
  519MeO     HC 3112   2.257   1.601   4.444
  519MeO      O 3113   2.228   1.401   4.403
  519MeO      H 3114   2.283   1.324   4.386
  520MeO      C 3115   1.740   4.017   1.390
  520MeO     HA 3116   1.737   4.125   1.373
  520MeO     HB 3117   1.843   3.984   1.383
  520MeO     HC 3118   1.682   3.969   1.311
  520MeO      O 3119   1.686   3.985   1.517
  520MeO      H 3120   1.696   3.889   1.527
  521MeO      C 3121   4.499   2.391   0.197
  521MeO     HA 3122   4.470   2.485   0.243
  521MeO     HB 3123   4.447   2.381   0.101
  521MeO     HC 3124   4.467   2.309   0.262
  521MeO      O 3125   4.639   2.386   0.178
  521MeO      H 3126   4.679   2.396   0.266
  522MeO      C 3127   2.583   4.103   1.839
  522MeO     HA 3128   2.641   4.139   1.755
  522MeO     HB 3129   2.478   4.099   1.810
  522MeO     HC 3130   2.592   4.175   1.921
  522MeO      O 3131   2.627   3.976   1.881
  522MeO      H 3132   2.572   3.951   1.957
  523MeO      C 3133   0.301   1.673   3.395
  523MeO     HA 3134   0.260   1.742   3.320
  523MeO     HB 3135   0.410   1.671   3.384
  523MeO     HC 3136   0.263   1.573   3.375
  523MeO      O 3137   0.266   1.715   3.526
  523MeO      H 3138   0.309   1.653   3.586
  524MeO      C 3139   1.087   0.001   2.102
  524MeO     HA 3140   1.089   0.072   2.184
  524MeO     HB 3141   1.180   0.009   2.045
  524MeO     HC 3142   1.081   4.826   2.143
  524MeO      O 3143   0.976   0.024   2.017
  524MeO      H 3144   0.991   4.892   1.940
  525MeO      C 3145   2.400   3.149   4.104
  525MeO     HA 3146   2.353   3.107   4.192
  525MeO     HB 3147   2.331   3.221   4.059
  525MeO     HC 3148   2.418   3.069   4.032
  525MeO      O 3149   2.522   3.212   4.138
  525MeO      H 3150   2.580   3.145   4.175
  526MeO      C 3151   0.905   4.729   1.752
  526MeO     HA 3152   0.864   4.661   1.826
  526MeO     HB 3153   0.927   4.673   1.662
  526MeO     HC 3154   0.830   4.805   1.729
  526MeO      O 3155   1.022   4.791   1.802
  526MeO      H 3156   1.055   4.850   1.733
  527MeO      C 3157   0.316   2.138   3.992
  527MeO     HA 3158   0.278   2.046   3.949
  527MeO     HB 3159   0.273   2.150   4.091
  527MeO     HC 3160   0.283   2.221   3.930
  527MeO      O 3161   0.457   2.134   3.998
  527MeO      H 3162   0.488   2.116   3.908
  528MeO      C 3163   1.896   4.313   0.008
  528MeO     HA 3164   1.957   4.296   4.845
  528MeO     HB 3165   1.941   4.259   0.091
  528MeO     HC 3166   1.896   4.419   0.031
  528MeO      O 3167   1.764   4.268   4.911
  528MeO      H 3168   1.734   4.307   4.829
  529MeO      C 3169   2.786   3.500   0.143
  529MeO     HA 3170   2.852   3.529   0.225
  529MeO     HB 3171   2.808   3.396   0.117
  529MeO     HC 3172   2.683   3.506   0.177
  529MeO      O 3173   2.807   3.583   0.031
  529MeO      H 3174   2.898   3.569   0.004
  530MeO      C 3175   0.691   2.045   4.239
  530MeO     HA 3176   0.615   2.067   4.314
  530MeO     HB 3177   0.788   2.037   4.289
  530MeO     HC 3178   0.667   1.948   4.194
  530MeO      O 3179   0.694   2.146   4.141
  530MeO      H 3180   0.608   2.144   4.097
  531MeO      C 3181   4.255   4.465   4.715
  531MeO     HA 3182   4.316   4.499   4.799
  531MeO     HB 3183   4.157   4.437   4.753
  531MeO     HC 3184   4.243   4.548   4.646
  531MeO      O 3185   4.317   4.356   4.650
  531MeO      H 3186   4.402   4.387   4.619
  532MeO      C 3187   3.677   1.697   1.835
  532MeO     HA 3188   3.646   1.791   1.880
  532MeO     HB 3189   3.632   1.614   1.890
  532MeO     HC 3190   3.786   1.690   1.845
  532MeO      O 3191   3.640   1.694   1.699
  532MeO      H 3192   3.670   1.778   1.661
  533MeO      C 3193   0.508   3.317   1.566
  533MeO     HA 3194   0.402   3.315   1.540
  533MeO     HB 3195   0.553   3.406   1.521
  533MeO     HC 3196   0.556   3.229   1.525
  533MeO      O 3197   0.524   3.321   1.707
  533MeO      H 3198   0.619   3.327   1.723
  534MeO      C 3199   2.160   4.162   4.639
  534MeO     HA 3200   2.109   4.091   4.574
  534MeO     HB 3201   2.267   4.157   4.616
  534MeO     HC 3202   2.145   4.131   4.742
  534MeO      O 3203   2.112   4.293   4.619
  534MeO      H 3204   2.155   4.348   4.685
  535MeO      C 3205   0.968   2.606   0.587
  535MeO     HA 3206   1.000   2.690   0.648
  535MeO     HB 3207   0.952   2.520   0.652
  535MeO     HC 3208   0.873   2.632   0.540
  535MeO      O 3209   1.065   2.578   0.489
  535MeO      H 3210   1.078   2.658   0.437
  536MeO      C 3211   1.908   2.147   4.600
  536MeO     HA 3212   1.813   2.201   4.595
  536MeO     HB 3213   1.887   2.042   4.620
  536MeO     HC 3214   1.966   2.186   4.683
  536MeO      O 3215   1.980   2.161   4.479
  536MeO      H 3216   2.062   2.112   4.491
  537MeO      C 3217   2.875   0.087   4.192
  537MeO     HA 3218   2.813   0.088   4.282
  537MeO     HB 3219   2.903   4.909   4.171
  537MeO     HC 3220   2.816   0.124   4.109
  537MeO      O 3221   2.991   0.165   4.211
  537MeO      H 3222   3.046   0.154   4.132
  538MeO      C 3223   2.251   2.656   3.589
  538MeO     HA 3224   2.294   2.567   3.634
  538MeO     HB 3225   2.147   2.634   3.562
  538MeO     HC 3226   2.306   2.679   3.498
  538MeO      O 3227   2.256   2.765   3.679
  538MeO      H 3228   2.215   2.840   3.635
  539MeO      C 3229   0.373   3.174   3.846
  539MeO     HA 3230   0.290   3.228   3.800
  539MeO     HB 3231   0.333   3.090   3.902
  539MeO     HC 3232   0.423   3.241   3.916
  539MeO      O 3233   0.465   3.129   3.748
  539MeO      H 3234   0.536   3.085   3.795
  540MeO      C 3235   3.040   0.166   0.538
  540MeO     HA 3236   3.021   0.097   0.456
  540MeO     HB 3237   2.955   0.233   0.548
  540MeO     HC 3238   3.128   0.226   0.514
  540MeO      O 3239   3.060   0.096   0.659
  540MeO      H 3240   3.074   0.161   0.728
  541MeO      C 3241   3.216   2.872   0.733
  541MeO     HA 3242   3.132   2.909   0.675
  541MeO     HB 3243   3.307   2.923   0.701
  541MeO     HC 3244   3.198   2.896   0.838
  541MeO      O 3245   3.230   2.732   0.717
  541MeO      H 3246   3.147   2.693   0.749
  542MeO      C 3247   2.943   0.116   3.721
  542MeO     HA 3248   2.847   0.127   3.671
  542MeO     HB 3249   2.991   0.025   3.684
  542MeO     HC 3250   3.006   0.201   3.695
  542MeO      O 3251   2.925   0.109   3.861
  542MeO      H 3252   3.013   0.113   3.901
  543MeO      C 3253   0.751   0.267   1.943
  543MeO     HA 3254   0.705   0.235   2.037
  543MeO     HB 3255   0.705   0.361   1.912
  543MeO     HC 3256   0.731   0.191   1.867
  543MeO      O 3257   0.890   0.283   1.960
  543MeO      H 3258   0.926   0.196   1.982
  544MeO      C 3259   2.392   1.621   0.881
  544MeO     HA 3260   2.377   1.605   0.987
  544MeO     HB 3261   2.499   1.621   0.861
  544MeO     HC 3262   2.347   1.538   0.826
  544MeO      O 3263   2.335   1.743   0.841
  544MeO      H 3264   2.375   1.812   0.895
  545MeO      C 3265   2.351   2.838   2.086
  545MeO     HA 3266   2.249   2.864   2.112
  545MeO     HB 3267   2.352   2.793   1.987
  545MeO     HC 3268   2.411   2.929   2.084
  545MeO      O 3269   2.404   2.747   2.181
  545MeO      H 3270   2.350   2.668   2.178
  546MeO      C 3271   1.909   4.324   2.927
  546MeO     HA 3272   1.923   4.400   3.005
  546MeO     HB 3273   1.865   4.235   2.973
  546MeO     HC 3274   1.839   4.364   2.853
  546MeO      O 3275   2.032   4.293   2.866
  546MeO      H 3276   2.065   4.374   2.825
  547MeO      C 3277   1.139   3.113   4.552
  547MeO     HA 3278   1.214   3.055   4.498
  547MeO     HB 3279   1.177   3.215   4.565
  547MeO     HC 3280   1.126   3.068   4.651
  547MeO      O 3281   1.016   3.114   4.481
  547MeO      H 3282   0.986   3.022   4.477
  548MeO      C 3283   1.116   0.775   0.771
  548MeO     HA 3284   1.209   0.774   0.714
  548MeO     HB 3285   1.032   0.767   0.702
  548MeO     HC 3286   1.109   0.871   0.823
  548MeO      O 3287   1.114   0.668   0.864
  548MeO      H 3288   1.121   0.587   0.813
  549MeO      C 3289   2.015   4.888   3.587
  549MeO     HA 3290   1.997   0.053   3.645
  549MeO     HB 3291   1.985   4.802   3.647
  549MeO     HC 3292   2.122   4.881   3.567
  549MeO      O 3293   1.944   4.893   3.465
  549MeO      H 3294   1.974   0.044   3.417
  550MeO      C 3295   0.834   2.773   1.591
  550MeO     HA 3296   0.727   2.785   1.605
  550MeO     HB 3297   0.851   2.722   1.496
  550MeO     HC 3298   0.873   2.710   1.671
  550MeO      O 3299   0.899   2.898   1.591
  550MeO      H 3300   0.994   2.880   1.584
  551MeO      C 3301   3.366   2.263   3.881
  551MeO     HA 3302   3.468   2.232   3.901
  551MeO     HB 3303   3.301   2.178   3.901
  551MeO     HC 3304   3.357   2.290   3.776
  551MeO      O 3305   3.330   2.372   3.964
  551MeO      H 3306   3.342   2.344   4.055
  552MeO      C 3307   1.737   4.826   2.431
  552MeO     HA 3308   1.824   4.814   2.366
  552MeO     HB 3309   1.681   4.733   2.433
  552MeO     HC 3310   1.771   4.848   2.532
  552MeO      O 3311   1.654   0.005   2.385
  552MeO      H 3312   1.580   0.011   2.445
  553MeO      C 3313   1.483   0.193   0.420
  553MeO     HA 3314   1.535   0.283   0.389
  553MeO     HB 3315   1.498   0.116   0.344
  553MeO     HC 3316   1.376   0.214   0.427
  553MeO      O 3317   1.533   0.148   0.544
  553MeO      H 3318   1.491   0.063   0.563
  554MeO      C 3319   3.647   1.387   1.284
  554MeO     HA 3320   3.697   1.381   1.188
  554MeO     HB 3321   3.607   1.288   1.309
  554MeO     HC 3322   3.563   1.456   1.275
  554MeO      O 3323   3.735   1.430   1.385
  554MeO      H 3324   3.686   1.431   1.467
  555MeO      C 3325   3.881   3.085   3.684
  555MeO     HA 3326   3.785   3.048   3.646
  555MeO     HB 3327   3.958   3.012   3.658
  555MeO     HC 3328   3.875   3.092   3.792
  555MeO      O 3329   3.911   3.210   3.626
  555MeO      H 3330   3.914   3.197   3.531
  556MeO      C 3331   3.363   1.130   3.884
  556MeO     HA 3332   3.462   1.175   3.874
  556MeO     HB 3333   3.375   1.021   3.886
  556MeO     HC 3334   3.320   1.162   3.979
  556MeO      O 3335   3.281   1.170   3.777
  556MeO      H 3336   3.271   1.265   3.783
  557MeO      C 3337   2.025   4.333   0.378
  557MeO     HA 3338   1.929   4.310   0.332
  557MeO     HB 3339   2.061   4.429   0.340
  557MeO     HC 3340   2.009   4.343   0.486
  557MeO      O 3341   2.118   4.230   0.351
  557MeO      H 3342   2.082   4.150   0.391
  558MeO      C 3343   1.258   1.944   2.060
  558MeO     HA 3344   1.363   1.922   2.040
  558MeO     HB 3345   1.197   1.888   1.988
  558MeO     HC 3346   1.234   1.909   2.160
  558MeO      O 3347   1.234   2.083   2.048
  558MeO      H 3348   1.289   2.127   2.113
  559MeO      C 3349   1.740   3.775   2.844
  559MeO     HA 3350   1.740   3.855   2.918
  559MeO     HB 3351   1.652   3.714   2.859
  559MeO     HC 3352   1.735   3.820   2.745
  559MeO      O 3353   1.857   3.697   2.856
  559MeO      H 3354   1.859   3.663   2.945
  560MeO      C 3355   1.278   0.973   2.692
  560MeO     HA 3356   1.177   1.013   2.686
  560MeO     HB 3357   1.316   0.960   2.591
  560MeO     HC 3358   1.274   0.875   2.740
  560MeO      O 3359   1.361   1.059   2.766
  560MeO      H 3360   1.448   1.019   2.768
  561MeO      C 3361   0.254   1.720   0.918
  561MeO     HA 3362   0.209   1.775   0.835
  561MeO     HB 3363   0.297   1.792   0.988
  561MeO     HC 3364   0.175   1.665   0.970
  561MeO      O 3365   0.353   1.632   0.871
  561MeO      H 3366   0.391   1.588   0.949
  562MeO      C 3367   4.355   0.145   0.584
  562MeO     HA 3368   4.308   0.065   0.526
  562MeO     HB 3369   4.329   0.241   0.539
  562MeO     HC 3370   4.315   0.142   0.686
  562MeO      O 3371   4.495   0.129   0.587
  562MeO      H 3372   4.525   0.129   0.495
  563MeO      C 3373   1.499   1.936   3.192
  563MeO     HA 3374   1.576   1.994   3.243
  563MeO     HB 3375   1.496   1.967   3.087
  563MeO     HC 3376   1.526   1.831   3.196
  563MeO      O 3377   1.374   1.956   3.254
  563MeO      H 3378   1.384   1.929   3.346
  564MeO      C 3379   3.584   2.155   2.936
  564MeO     HA 3380   3.609   2.080   2.861
  564MeO     HB 3381   3.619   2.251   2.901
  564MeO     HC 3382   3.637   2.130   3.029
  564MeO      O 3383   3.445   2.158   2.958
  564MeO      H 3384   3.405   2.176   2.872
  565MeO      C 3385   2.967   0.459   0.298
  565MeO     HA 3386   2.927   0.357   0.299
  565MeO     HB 3387   3.004   0.482   0.398
  565MeO     HC 3388   2.885   0.528   0.275
  565MeO      O 3389   3.070   0.470   0.202
  565MeO      H 3390   3.032   0.443   0.117
  566MeO      C 3391   1.205   4.716   3.323
  566MeO     HA 3392   1.104   4.747   3.349
  566MeO     HB 3393   1.243   4.652   3.403
  566MeO     HC 3394   1.200   4.658   3.231
  566MeO      O 3395   1.288   4.829   3.306
  566MeO      H 3396   1.250   4.881   3.234
  567MeO      C 3397   0.705   3.004   1.870
  567MeO     HA 3398   0.805   2.995   1.830
  567MeO     HB 3399   0.680   3.110   1.881
  567MeO     HC 3400   0.635   2.959   1.800
  567MeO      O 3401   0.698   2.939   1.996
  567MeO      H 3402   0.716   2.846   1.979
  568MeO      C 3403   4.786   3.452   4.515
  568MeO     HA 3404   4.785   3.560   4.508
  568MeO     HB 3405   4.856   3.424   4.594
  568MeO     HC 3406   4.686   3.418   4.544
  568MeO      O 3407   4.825   3.394   4.392
  568MeO      H 3408   4.916   3.418   4.377
  569MeO      C 3409   4.911   2.105   4.316
  569MeO     HA 3410   4.863   2.191   4.271
  569MeO     HB 3411   0.045   2.140   4.401
  569MeO     HC 3412   0.053   2.060   4.243
  569MeO      O 3413   4.815   2.012   4.360
  569MeO      H 3414   4.758   2.058   4.423
  570MeO      C 3415   3.772   3.535   2.832
  570MeO     HA 3416   3.680   3.560   2.780
  570MeO     HB 3417   3.748   3.502   2.933
  570MeO     HC 3418   3.834   3.625   2.839
  570MeO      O 3419   3.841   3.434   2.763
  570MeO      H 3420   3.919   3.412   2.816
  571MeO      C 3421   2.578   0.575   1.003
  571MeO     HA 3422   2.510   0.491   1.016
  571MeO     HB 3423   2.536   0.663   1.052
  571MeO     HC 3424   2.673   0.551   1.050
  571MeO      O 3425   2.597   0.602   0.866
  571MeO      H 3426   2.656   0.678   0.859
  572MeO      C 3427   4.673   1.203   0.937
  572MeO     HA 3428   4.716   1.229   0.840
  572MeO     HB 3429   4.588   1.269   0.955
  572MeO     HC 3430   4.637   1.101   0.932
  572MeO      O 3431   4.770   1.217   1.039
  572MeO      H 3432   4.842   1.157   1.013
  573MeO      C 3433   4.817   3.707   4.235
  573MeO     HA 3434   4.725   3.660   4.267
  573MeO     HB 3435   4.900   3.663   4.291
  573MeO     HC 3436   4.832   3.686   4.129
  573MeO      O 3437   4.813   3.846   4.258
  573MeO      H 3438   4.804   3.861   4.353
  574MeO      C 3439   1.609   3.762   0.176
  574MeO     HA 3440   1.710   3.767   0.215
  574MeO     HB 3441   1.563   3.669   0.210
  574MeO     HC 3442   1.551   3.846   0.215
  574MeO      O 3443   1.611   3.766   0.035
  574MeO      H 3444   1.653   3.850   0.011
  575MeO      C 3445   4.163   4.251   1.089
  575MeO     HA 3446   4.140   4.314   1.003
  575MeO     HB 3447   4.245   4.298   1.144
  575MeO     HC 3448   4.197   4.154   1.053
  575MeO      O 3449   4.050   4.238   1.172
  575MeO      H 3450   4.022   4.327   1.197
  576MeO      C 3451   0.519   3.963   3.205
  576MeO     HA 3452   0.520   4.066   3.169
  576MeO     HB 3453   0.593   3.906   3.149
  576MeO     HC 3454   0.420   3.921   3.185
  576MeO      O 3455   0.547   3.959   3.343
  576MeO      H 3456   0.481   4.015   3.386
  577MeO      C 3457   0.422   1.707   0.255
  577MeO     HA 3458   0.413   1.712   0.147
  577MeO     HB 3459   0.323   1.688   0.297
  577MeO     HC 3460   0.488   1.624   0.282
  577MeO      O 3461   0.473   1.828   0.306
  577MeO      H 3462   0.406   1.896   0.287
  578MeO      C 3463   3.844   2.953   2.667
  578MeO     HA 3464   3.904   2.882   2.610
  578MeO     HB 3465   3.826   3.042   2.606
  578MeO     HC 3466   3.901   2.984   2.755
  578MeO      O 3467   3.721   2.895   2.706
  578MeO      H 3468   3.674   2.961   2.758
  579MeO      C 3469   1.306   1.117   1.886
  579MeO     HA 3470   1.373   1.086   1.967
  579MeO     HB 3471   1.367   1.142   1.798
  579MeO     HC 3472   1.242   1.033   1.861
  579MeO      O 3473   1.229   1.228   1.926
  579MeO      H 3474   1.178   1.200   2.004
  580MeO      C 3475   1.541   0.627   4.465
  580MeO     HA 3476   1.532   0.519   4.448
  580MeO     HB 3477   1.460   0.677   4.412
  580MeO     HC 3478   1.529   0.646   4.572
  580MeO      O 3479   1.666   0.673   4.419
  580MeO      H 3480   1.669   0.653   4.325
  581MeO      C 3481   4.219   4.579   2.672
  581MeO     HA 3482   4.176   4.676   2.694
  581MeO     HB 3483   4.307   4.565   2.734
  581MeO     HC 3484   4.248   4.578   2.567
  581MeO      O 3485   4.124   4.477   2.697
  581MeO      H 3486   4.049   4.495   2.638
  582MeO      C 3487   4.555   4.730   2.665
  582MeO     HA 3488   4.533   4.657   2.587
  582MeO     HB 3489   4.467   4.792   2.681
  582MeO     HC 3490   4.578   4.677   2.757
  582MeO      O 3491   4.664   4.811   2.627
  582MeO      H 3492   4.677   4.877   2.695
  583MeO      C 3493   3.590   0.310   1.681
  583MeO     HA 3494   3.609   0.231   1.754
  583MeO     HB 3495   3.620   0.274   1.582
  583MeO     HC 3496   3.484   0.331   1.680
  583MeO      O 3497   3.663   0.426   1.716
  583MeO      H 3498   3.634   0.450   1.805
  584MeO      C 3499   2.638   4.210   4.769
  584MeO     HA 3500   2.634   4.280   4.852
  584MeO     HB 3501   2.720   4.237   4.704
  584MeO     HC 3502   2.657   4.110   4.809
  584MeO      O 3503   2.516   4.210   4.698
  584MeO      H 3504   2.520   4.138   4.634
  585MeO      C 3505   2.612   4.316   4.123
  585MeO     HA 3506   2.573   4.272   4.215
  585MeO     HB 3507   2.528   4.332   4.054
  585MeO     HC 3508   2.681   4.245   4.078
  585MeO      O 3509   2.677   4.438   4.151
  585MeO      H 3510   2.749   4.418   4.212
  586MeO      C 3511   1.317   0.834   1.591
  586MeO     HA 3512   1.234   0.883   1.540
  586MeO     HB 3513   1.345   0.745   1.534
  586MeO     HC 3514   1.282   0.802   1.690
  586MeO      O 3515   1.428   0.920   1.604
  586MeO      H 3516   1.497   0.870   1.648
  587MeO      C 3517   1.035   4.132   0.028
  587MeO     HA 3518   1.044   4.096   0.130
  587MeO     HB 3519   0.976   4.223   0.028
  587MeO     HC 3520   1.135   4.155   4.916
  587MeO      O 3521   0.975   4.034   4.871
  587MeO      H 3522   0.975   4.070   4.781
  588MeO      C 3523   4.887   3.222   1.785
  588MeO     HA 3524   0.021   3.282   1.716
  588MeO     HB 3525   4.822   3.290   1.841
  588MeO     HC 3526   0.028   3.173   1.856
  588MeO      O 3527   4.809   3.128   1.714
  588MeO      H 3528   4.744   3.180   1.665
  589MeO      C 3529   4.181   2.948   3.172
  589MeO     HA 3530   4.246   3.017   3.226
  589MeO     HB 3531   4.214   2.846   3.191
  589MeO     HC 3532   4.191   2.968   3.065
  589MeO      O 3533   4.046   2.964   3.211
  589MeO      H 3534   3.995   2.897   3.165
  590MeO      C 3535   3.036   0.065   2.917
  590MeO     HA 3536   3.039   0.036   2.812
  590MeO     HB 3537   3.134   0.046   2.961
  590MeO     HC 3538   3.016   0.172   2.922
  590MeO      O 3539   2.937   4.917   2.986
  590MeO      H 3540   2.965   4.825   2.985
  591MeO      C 3541   3.454   3.348   1.304
  591MeO     HA 3542   3.349   3.322   1.294
  591MeO     HB 3543   3.503   3.329   1.209
  591MeO     HC 3544   3.498   3.284   1.380
  591MeO      O 3545   3.467   3.484   1.339
  591MeO      H 3546   3.429   3.536   1.267
  592MeO      C 3547   4.321   4.288   2.426
  592MeO     HA 3548   4.276   4.295   2.525
  592MeO     HB 3549   4.307   4.382   2.374
  592MeO     HC 3550   4.428   4.271   2.439
  592MeO      O 3551   4.265   4.180   2.355
  592MeO      H 3552   4.276   4.102   2.411
  593MeO      C 3553   0.740   0.075   4.134
  593MeO     HA 3554   0.837   0.066   4.181
  593MeO     HB 3555   0.665   0.094   4.211
  593MeO     HC 3556   0.742   0.160   4.066
  593MeO      O 3557   0.708   4.882   4.063
  593MeO      H 3558   0.774   4.871   3.994
  594MeO      C 3559   0.771   0.726   0.922
  594MeO     HA 3560   0.760   0.669   1.014
  594MeO     HB 3561   0.831   0.668   0.852
  594MeO     HC 3562   0.825   0.818   0.945
  594MeO      O 3563   0.645   0.755   0.867
  594MeO      H 3564   0.594   0.802   0.934
  595MeO      C 3565   3.995   1.504   3.729
  595MeO     HA 3566   3.971   1.416   3.788
  595MeO     HB 3567   3.971   1.593   3.787
  595MeO     HC 3568   3.932   1.504   3.639
  595MeO      O 3569   4.131   1.506   3.692
  595MeO      H 3570   4.143   1.586   3.640
  596MeO      C 3571   2.033   1.700   0.713
  596MeO     HA 3572   2.069   1.772   0.787
  596MeO     HB 3573   2.111   1.684   0.639
  596MeO     HC 3574   2.012   1.606   0.764
  596MeO      O 3575   1.916   1.750   0.652
  596MeO      H 3576   1.854   1.772   0.722
  597MeO      C 3577   2.538   1.841   4.874
  597MeO     HA 3578   2.470   1.806   0.027
  597MeO     HB 3579   2.640   1.839   4.912
  597MeO     HC 3580   2.512   1.945   4.851
  597MeO      O 3581   2.527   1.761   4.759
  597MeO      H 3582   2.583   1.799   4.692
  598MeO      C 3583   2.772   2.994   4.758
  598MeO     HA 3584   2.728   2.910   4.811
  598MeO     HB 3585   2.792   2.963   4.655
  598MeO     HC 3586   2.866   3.020   4.806
  598MeO      O 3587   2.684   3.104   4.760
  598MeO      H 3588   2.671   3.126   4.854
  599MeO      C 3589   1.046   0.297   2.663
  599MeO     HA 3590   0.982   0.360   2.725
  599MeO     HB 3591   1.094   0.224   2.728
  599MeO     HC 3592   0.984   0.244   2.591
  599MeO      O 3593   1.143   0.377   2.598
  599MeO      H 3594   1.195   0.420   2.667
  600MeO      C 3595   0.389   3.935   3.986
  600MeO     HA 3596   0.359   4.035   3.955
  600MeO     HB 3597   0.300   3.873   3.990
  600MeO     HC 3598   0.457   3.894   3.911
  600MeO      O 3599   0.452   3.939   4.112
  600MeO      H 3600   0.393   3.987   4.172
  601MeO      C 3601   4.535   3.219   1.503
  601MeO     HA 3602   4.592   3.200   1.412
  601MeO     HB 3603   4.503   3.124   1.546
  601MeO     HC 3604   4.447   3.277   1.477
  601MeO      O 3605   4.615   3.291   1.596
  601MeO      H 3606   4.638   3.374   1.553
  602MeO      C 3607   1.275   2.500   1.755
  602MeO     HA 3608   1.297   2.451   1.850
  602MeO     HB 3609   1.207   2.437   1.699
  602MeO     HC 3610   1.368   2.510   1.699
  602MeO      O 3611   1.217   2.627   1.779
  602MeO      H 3612   1.142   2.614   1.838
  603MeO      C 3613   2.902   0.457   2.517
  603MeO     HA 3614   2.836   0.434   2.600
  603MeO     HB 3615   2.889   0.562   2.490
  603MeO     HC 3616   2.873   0.396   2.432
  603MeO      O 3617   3.036   0.432   2.552
  603MeO      H 3618   3.090   0.455   2.476
  604MeO      C 3619   3.932   2.562   1.173
  604MeO     HA 3620   3.996   2.536   1.088
  604MeO     HB 3621   3.995   2.590   1.257
  604MeO     HC 3622   3.871   2.647   1.145
  604MeO      O 3623   3.850   2.452   1.208
  604MeO      H 3624   3.799   2.481   1.286
  605MeO      C 3625   2.391   4.234   2.746
  605MeO     HA 3626   2.297   4.231   2.691
  605MeO     HB 3627   2.472   4.250   2.676
  605MeO     HC 3628   2.387   4.318   2.816
  605MeO      O 3629   2.409   4.113   2.817
  605MeO      H 3630   2.333   4.104   2.876
  606MeO      C 3631   1.053   2.014   4.857
  606MeO     HA 3632   1.155   1.992   4.823
  606MeO     HB 3633   1.055   2.105   4.916
  606MeO     HC 3634   1.020   1.932   4.921
  606MeO      O 3635   0.967   2.028   4.746
  606MeO      H 3636   1.001   2.101   4.693
  607MeO      C 3637   4.031   0.693   4.633
  607MeO     HA 3638   4.136   0.669   4.644
  607MeO     HB 3639   4.003   0.763   4.712
  607MeO     HC 3640   4.016   0.741   4.537
  607MeO      O 3641   3.952   0.576   4.643
  607MeO      H 3642   3.968   0.539   4.731
  608MeO      C 3643   3.200   2.944   4.721
  608MeO     HA 3644   3.097   2.974   4.698
  608MeO     HB 3645   3.256   3.032   4.751
  608MeO     HC 3646   3.245   2.904   4.630
  608MeO      O 3647   3.202   2.847   4.824
  608MeO      H 3648   3.296   2.825   4.839
  609MeO      C 3649   0.961   2.290   1.609
  609MeO     HA 3650   0.977   2.388   1.654
  609MeO     HB 3651   0.911   2.226   1.681
  609MeO     HC 3652   1.058   2.246   1.586
  609MeO      O 3653   0.883   2.303   1.492
  609MeO      H 3654   0.802   2.351   1.518
  610MeO      C 3655   2.965   1.310   2.731
  610MeO     HA 3656   3.053   1.247   2.746
  610MeO     HB 3657   2.999   1.413   2.717
  610MeO     HC 3658   2.903   1.306   2.820
  610MeO      O 3659   2.892   1.267   2.618
  610MeO      H 3660   2.818   1.328   2.609
  611MeO      C 3661   2.437   1.747   2.311
  611MeO     HA 3662   2.476   1.649   2.339
  611MeO     HB 3663   2.520   1.811   2.282
  611MeO     HC 3664   2.388   1.792   2.398
  611MeO      O 3665   2.345   1.735   2.204
  611MeO      H 3666   2.391   1.689   2.133
  612MeO      C 3667   0.528   1.954   3.291
  612MeO     HA 3668   0.602   2.033   3.282
  612MeO     HB 3669   0.450   1.987   3.360
  612MeO     HC 3670   0.576   1.865   3.333
  612MeO      O 3671   0.473   1.924   3.165
  612MeO      H 3672   0.547   1.894   3.110
  613MeO      C 3673   4.372   3.578   0.146
  613MeO     HA 3674   4.359   3.470   0.146
  613MeO     HB 3675   4.477   3.600   0.125
  613MeO     HC 3676   4.348   3.616   0.246
  613MeO      O 3677   4.288   3.637   0.049
  613MeO      H 3678   4.198   3.615   0.073
  614MeO      C 3679   2.417   3.226   2.646
  614MeO     HA 3680   2.314   3.248   2.675
  614MeO     HB 3681   2.471   3.190   2.734
  614MeO     HC 3682   2.465   3.318   2.613
  614MeO      O 3683   2.421   3.128   2.544
  614MeO      H 3684   2.514   3.113   2.525
  615MeO      C 3685   3.703   4.755   0.210
  615MeO     HA 3686   3.812   4.755   0.200
  615MeO     HB 3687   3.675   4.833   0.279
  615MeO     HC 3688   3.672   4.659   0.251
  615MeO      O 3689   3.641   4.777   0.085
  615MeO      H 3690   3.546   4.772   0.101
  616MeO      C 3691   4.776   3.342   0.751
  616MeO     HA 3692   4.817   3.348   0.650
  616MeO     HB 3693   4.693   3.412   0.759
  616MeO     HC 3694   4.854   3.372   0.821
  616MeO      O 3695   4.734   3.210   0.779
  616MeO      H 3696   4.812   3.154   0.773
  617MeO      C 3697   3.077   2.022   1.896
  617MeO     HA 3698   3.169   2.002   1.950
  617MeO     HB 3699   3.047   2.125   1.914
  617MeO     HC 3700   3.096   2.010   1.790
  617MeO      O 3701   2.976   1.932   1.937
  617MeO      H 3702   3.013   1.843   1.926
  618MeO      C 3703   0.388   2.827   2.160
  618MeO     HA 3704   0.472   2.769   2.200
  618MeO     HB 3705   0.410   2.852   2.056
  618MeO     HC 3706   0.299   2.764   2.162
  618MeO      O 3707   0.368   2.944   2.235
  618MeO      H 3708   0.450   2.995   2.230
  619MeO      C 3709   4.625   1.667   2.204
  619MeO     HA 3710   4.595   1.601   2.285
  619MeO     HB 3711   4.726   1.641   2.173
  619MeO     HC 3712   4.625   1.770   2.242
  619MeO      O 3713   4.535   1.654   2.096
  619MeO      H 3714   4.449   1.679   2.130
  620MeO      C 3715   0.051   2.261   2.726
  620MeO     HA 3716   0.053   2.336   2.647
  620MeO     HB 3717   4.873   2.238   2.750
  620MeO     HC 3718   0.100   2.301   2.814
  620MeO      O 3719   0.117   2.143   2.682
  620MeO      H 3720   0.064   2.106   2.611
  621MeO      C 3721   3.420   2.010   4.651
  621MeO     HA 3722   3.498   2.062   4.708
  621MeO     HB 3723   3.399   2.068   4.561
  621MeO     HC 3724   3.330   2.005   4.712
  621MeO      O 3725   3.464   1.880   4.617
  621MeO      H 3726   3.476   1.832   4.699
  622MeO      C 3727   3.362   2.001   3.247
  622MeO     HA 3728   3.326   1.980   3.348
  622MeO     HB 3729   3.294   1.954   3.175
  622MeO     HC 3730   3.461   1.956   3.235
  622MeO      O 3731   3.369   2.140   3.223
  622MeO      H 3732   3.396   2.150   3.131
  623MeO      C 3733   2.562   4.767   2.868
  623MeO     HA 3734   2.663   4.778   2.830
  623MeO     HB 3735   2.498   4.838   2.815
  623MeO     HC 3736   2.528   4.666   2.846
  623MeO      O 3737   2.558   4.792   3.007
  623MeO      H 3738   2.598   4.879   3.019
  624MeO      C 3739   2.144   4.505   2.265
  624MeO     HA 3740   2.138   4.472   2.369
  624MeO     HB 3741   2.067   4.580   2.248
  624MeO     HC 3742   2.124   4.420   2.201
  624MeO      O 3743   2.272   4.559   2.239
  624MeO      H 3744   2.336   4.489   2.260
  625MeO      C 3745   3.514   4.202   0.169
  625MeO     HA 3746   3.586   4.266   0.117
  625MeO     HB 3747   3.516   4.228   0.274
  625MeO     HC 3748   3.545   4.098   0.157
  625MeO      O 3749   3.385   4.222   0.116
  625MeO      H 3750   3.362   4.314   0.135
  626MeO      C 3751   0.449   4.636   3.475
  626MeO     HA 3752   0.408   4.578   3.558
  626MeO     HB 3753   0.512   4.715   3.515
  626MeO     HC 3754   0.366   4.682   3.421
  626MeO      O 3755   0.524   4.553   3.389
  626MeO      H 3756   0.557   4.610   3.319
  627MeO      C 3757   3.576   2.949   0.415
  627MeO     HA 3758   3.594   2.992   0.514
  627MeO     HB 3759   3.625   3.012   0.340
  627MeO     HC 3760   3.469   2.950   0.397
  627MeO      O 3761   3.626   2.817   0.409
  627MeO      H 3762   3.579   2.768   0.477
  628MeO      C 3763   2.041   3.592   1.409
  628MeO     HA 3764   2.090   3.535   1.330
  628MeO     HB 3765   2.091   3.571   1.503
  628MeO     HC 3766   2.052   3.698   1.387
  628MeO      O 3767   1.904   3.557   1.417
  628MeO      H 3768   1.901   3.462   1.434
  629MeO      C 3769   0.992   1.428   3.305
  629MeO     HA 3770   0.943   1.519   3.271
  629MeO     HB 3771   0.969   1.348   3.235
  629MeO     HC 3772   0.952   1.401   3.403
  629MeO      O 3773   1.132   1.448   3.313
  629MeO      H 3774   1.162   1.472   3.224
  630MeO      C 3775   1.717   1.165   0.684
  630MeO     HA 3776   1.635   1.233   0.707
  630MeO     HB 3777   1.809   1.204   0.728
  630MeO     HC 3778   1.730   1.162   0.575
  630MeO      O 3779   1.692   1.035   0.733
  630MeO      H 3780   1.769   0.981   0.712
  631MeO      C 3781   2.323   0.249   2.671
  631MeO     HA 3782   2.313   0.215   2.569
  631MeO     HB 3783   2.390   0.336   2.672
  631MeO     HC 3784   2.369   0.169   2.730
  631MeO      O 3785   2.197   0.283   2.725
  631MeO      H 3786   2.162   0.354   2.671
  632MeO      C 3787   4.228   2.273   1.045
  632MeO     HA 3788   4.206   2.347   1.121
  632MeO     HB 3789   4.137   2.217   1.025
  632MeO     HC 3790   4.304   2.204   1.083
  632MeO      O 3791   4.273   2.335   0.926
  632MeO      H 3792   4.197   2.386   0.893
  633MeO      C 3793   0.627   0.265   1.595
  633MeO     HA 3794   0.550   0.284   1.670
  633MeO     HB 3795   0.592   0.304   1.500
  633MeO     HC 3796   0.717   0.319   1.624
  633MeO      O 3797   0.652   0.126   1.585
  633MeO      H 3798   0.569   0.085   1.561
  634MeO      C 3799   0.267   4.518   2.329
  634MeO     HA 3800   0.311   4.419   2.341
  634MeO     HB 3801   0.167   4.516   2.373
  634MeO     HC 3802   0.328   4.590   2.384
  634MeO      O 3803   0.259   4.552   2.193
  634MeO      H 3804   0.206   4.483   2.150
  635MeO      C 3805   4.108   1.057   2.439
  635MeO     HA 3806   4.093   1.059   2.547
  635MeO     HB 3807   4.184   0.983   2.416
  635MeO     HC 3808   4.143   1.155   2.408
  635MeO      O 3809   3.986   1.025   2.373
  635MeO      H 3810   3.924   1.095   2.398
  636MeO      C 3811   4.298   1.739   0.755
  636MeO     HA 3812   4.305   1.847   0.750
  636MeO     HB 3813   4.323   1.707   0.856
  636MeO     HC 3814   4.372   1.696   0.686
  636MeO      O 3815   4.168   1.696   0.721
  636MeO      H 3816   4.108   1.737   0.785
  637MeO      C 3817   1.933   1.780   0.313
  637MeO     HA 3818   1.880   1.871   0.338
  637MeO     HB 3819   2.021   1.772   0.377
  637MeO     HC 3820   1.869   1.694   0.333
  637MeO      O 3821   1.972   1.780   0.177
  637MeO      H 3822   2.020   1.698   0.162
  638MeO      C 3823   0.642   4.035   0.415
  638MeO     HA 3824   0.686   3.997   0.323
  638MeO     HB 3825   0.716   4.099   0.464
  638MeO     HC 3826   0.556   4.097   0.389
  638MeO      O 3827   0.606   3.928   0.500
  638MeO      H 3828   0.689   3.883   0.521
  639MeO      C 3829   4.727   1.292   3.831
  639MeO     HA 3830   4.652   1.306   3.909
  639MeO     HB 3831   4.676   1.264   3.739
  639MeO     HC 3832   4.779   1.386   3.815
  639MeO      O 3833   4.819   1.191   3.868
  639MeO      H 3834   4.881   1.182   3.795
  640MeO      C 3835   0.554   0.674   1.781
  640MeO     HA 3836   0.611   0.581   1.780
  640MeO     HB 3837   0.523   0.694   1.884
  640MeO     HC 3838   0.465   0.661   1.720
  640MeO      O 3839   0.633   0.780   1.731
  640MeO      H 3840   0.711   0.786   1.788
  641MeO      C 3841   2.084   2.433   4.309
  641MeO     HA 3842   2.181   2.383   4.316
  641MeO     HB 3843   2.091   2.512   4.234
  641MeO     HC 3844   2.062   2.479   4.405
  641MeO      O 3845   1.983   2.340   4.275
  641MeO      H 3846   1.982   2.275   4.347
  642MeO      C 3847   2.849   2.964   0.882
  642MeO     HA 3848   2.841   3.019   0.789
  642MeO     HB 3849   2.792   3.017   0.958
  642MeO     HC 3850   2.954   2.962   0.912
  642MeO      O 3851   2.799   2.833   0.865
  642MeO      H 3852   2.707   2.843   0.837
  643MeO      C 3853   4.609   0.319   2.522
  643MeO     HA 3854   4.514   0.293   2.569
  643MeO     HB 3855   4.599   0.419   2.479
  643MeO     HC 3856   4.627   0.249   2.441
  643MeO      O 3857   4.714   0.317   2.617
  643MeO      H 3858   4.689   0.380   2.685
  644MeO      C 3859   1.203   4.325   1.298
  644MeO     HA 3860   1.157   4.287   1.206
  644MeO     HB 3861   1.153   4.280   1.383
  644MeO     HC 3862   1.187   4.433   1.302
  644MeO      O 3863   1.341   4.296   1.300
  644MeO      H 3864   1.375   4.330   1.384
  645MeO      C 3865   3.670   0.679   4.859
  645MeO     HA 3866   3.759   0.638   4.907
  645MeO     HB 3867   3.666   0.641   4.757
  645MeO     HC 3868   3.679   0.788   4.856
  645MeO      O 3869   3.554   0.641   0.004
  645MeO      H 3870   3.546   0.546   4.922
  646MeO      C 3871   3.242   3.762   4.283
  646MeO     HA 3872   3.288   3.834   4.351
  646MeO     HB 3873   3.142   3.796   4.259
  646MeO     HC 3874   3.301   3.758   4.192
  646MeO      O 3875   3.239   3.634   4.344
  646MeO      H 3876   3.330   3.613   4.367
  647MeO      C 3877   2.257   3.186   2.205
  647MeO     HA 3878   2.302   3.282   2.230
  647MeO     HB 3879   2.321   3.107   2.244
  647MeO     HC 3880   2.160   3.179   2.253
  647MeO      O 3881   2.244   3.173   2.065
  647MeO      H 3882   2.333   3.180   2.028
  648MeO      C 3883   0.058   0.966   4.580
  648MeO     HA 3884   0.156   0.933   4.614
  648MeO     HB 3885   0.032   0.909   4.491
  648MeO     HC 3886   0.064   1.071   4.553
  648MeO      O 3887   4.886   0.947   4.680
  648MeO      H 3888   4.803   0.979   4.643
  649MeO      C 3889   4.747   3.853   2.553
  649MeO     HA 3890   4.684   3.863   2.641
  649MeO     HB 3891   4.842   3.900   2.574
  649MeO     HC 3892   4.699   3.904   2.470
  649MeO      O 3893   4.765   3.716   2.522
  649MeO      H 3894   4.677   3.678   2.512
  650MeO      C 3895   2.589   2.926   2.884
  650MeO     HA 3896   2.527   2.878   2.960
  650MeO     HB 3897   2.528   2.947   2.797
  650MeO     HC 3898   2.668   2.856   2.855
  650MeO      O 3899   2.646   3.045   2.935
  650MeO      H 3900   2.572   3.099   2.966
  651MeO      C 3901   1.684   2.207   1.379
  651MeO     HA 3902   1.754   2.124   1.369
  651MeO     HB 3903   1.704   2.279   1.300
  651MeO     HC 3904   1.583   2.170   1.366
  651MeO      O 3905   1.697   2.268   1.506
  651MeO      H 3906   1.639   2.344   1.506
  652MeO      C 3907   1.044   3.297   4.175
  652MeO     HA 3908   0.944   3.258   4.155
  652MeO     HB 3909   1.088   3.329   4.081
  652MeO     HC 3910   1.033   3.385   4.240
  652MeO      O 3911   1.123   3.199   4.238
  652MeO      H 3912   1.079   3.176   4.321
  653MeO      C 3913   1.497   1.902   3.614
  653MeO     HA 3914   1.591   1.929   3.567
  653MeO     HB 3915   1.511   1.809   3.669
  653MeO     HC 3916   1.469   1.980   3.684
  653MeO      O 3917   1.396   1.886   3.516
  653MeO      H 3918   1.316   1.858   3.563
  654MeO      C 3919   3.489   2.376   4.562
  654MeO     HA 3920   3.474   2.480   4.591
  654MeO     HB 3921   3.396   2.322   4.577
  654MeO     HC 3922   3.565   2.333   4.627
  654MeO      O 3923   3.530   2.368   4.427
  654MeO      H 3924   3.613   2.417   4.420
  655MeO      C 3925   2.781   4.584   4.823
  655MeO     HA 3926   2.676   4.605   4.844
  655MeO     HB 3927   2.792   4.569   4.716
  655MeO     HC 3928   2.840   4.671   4.852
  655MeO      O 3929   2.824   4.470   4.893
  655MeO      H 3930   2.912   4.447   4.860
  656MeO      C 3931   0.721   0.442   2.333
  656MeO     HA 3932   0.763   0.379   2.255
  656MeO     HB 3933   0.789   0.443   2.418
  656MeO     HC 3934   0.713   0.544   2.294
  656MeO      O 3935   0.595   0.394   2.372
  656MeO      H 3936   0.608   0.306   2.409
  657MeO      C 3937   2.190   0.142   4.904
  657MeO     HA 3938   2.163   0.247   4.921
  657MeO     HB 3939   2.246   0.136   4.810
  657MeO     HC 3940   2.254   0.109   0.060
  657MeO      O 3941   2.073   0.063   4.896
  657MeO      H 3942   2.021   0.096   4.822
  658MeO      C 3943   1.508   2.222   0.990
  658MeO     HA 3944   1.534   2.319   0.948
  658MeO     HB 3945   1.495   2.152   0.908
  658MeO     HC 3946   1.590   2.188   1.053
  658MeO      O 3947   1.388   2.231   1.065
  658MeO      H 3948   1.318   2.254   1.002
  659MeO      C 3949   3.902   1.769   4.070
  659MeO     HA 3950   3.940   1.689   4.006
  659MeO     HB 3951   3.956   1.861   4.047
  659MeO     HC 3952   3.923   1.741   4.174
  659MeO      O 3953   3.763   1.787   4.051
  659MeO      H 3954   3.722   1.701   4.065
  660MeO      C 3955   2.906   1.536   4.908
  660MeO     HA 3956   2.993   1.521   4.844
  660MeO     HB 3957   2.897   1.642   0.005
  660MeO     HC 3958   2.817   1.505   4.855
  660MeO      O 3959   2.919   1.461   0.102
  660MeO      H 3960   2.839   1.481   0.153
  661MeO      C 3961   1.591   4.210   3.139
  661MeO     HA 3962   1.692   4.166   3.139
  661MeO     HB 3963   1.524   4.140   3.189
  661MeO     HC 3964   1.559   4.221   3.036
  661MeO      O 3965   1.592   4.334   3.206
  661MeO      H 3966   1.624   4.319   3.295
  662MeO      C 3967   3.996   4.398   3.014
  662MeO     HA 3968   3.944   4.418   3.107
  662MeO     HB 3969   3.931   4.338   2.950
  662MeO     HC 3970   4.086   4.340   3.036
  662MeO      O 3971   4.030   4.519   2.949
  662MeO      H 3972   4.065   4.497   2.862
  663MeO      C 3973   1.125   1.191   2.962
  663MeO     HA 3974   1.152   1.098   3.012
  663MeO     HB 3975   1.070   1.254   3.032
  663MeO     HC 3976   1.060   1.167   2.879
  663MeO      O 3977   1.241   1.256   2.916
  663MeO      H 3978   1.286   1.194   2.858
  664MeO      C 3979   4.894   4.128   1.392
  664MeO     HA 3980   4.805   4.190   1.404
  664MeO     HB 3981   4.872   4.028   1.430
  664MeO     HC 3982   0.049   4.171   1.452
  664MeO      O 3983   0.006   4.121   1.256
  664MeO      H 3984   4.855   4.089   1.206
  665MeO      C 3985   0.863   2.005   3.821
  665MeO     HA 3986   0.791   1.924   3.808
  665MeO     HB 3987   0.844   2.051   3.918
  665MeO     HC 3988   0.845   2.080   3.743
  665MeO      O 3989   0.995   1.956   3.814
  665MeO      H 3990   1.001   1.887   3.882
  666MeO      C 3991   1.921   1.573   4.739
  666MeO     HA 3992   1.982   1.571   4.648
  666MeO     HB 3993   1.934   1.670   4.788
  666MeO     HC 3994   1.817   1.561   4.711
  666MeO      O 3995   1.961   1.468   4.825
  666MeO      H 3996   1.949   1.386   4.775
  667MeO      C 3997   3.851   3.419   3.908
  667MeO     HA 3998   3.949   3.440   3.865
  667MeO     HB 3999   3.820   3.320   3.875
  667MeO     HC 4000   3.780   3.492   3.870
  667MeO      O 4001   3.857   3.424   4.049
  667MeO      H 4002   3.878   3.515   4.073
  668MeO      C 4003   0.242   0.990   4.263
  668MeO     HA 4004   0.311   0.923   4.313
  668MeO     HB 4005   0.294   1.039   4.181
  668MeO     HC 4006   0.210   1.067   4.334
  668MeO      O 4007   0.130   0.919   4.214
  668MeO      H 4008   0.068   0.985   4.180
  669MeO      C 4009   2.326   0.205   3.638
  669MeO     HA 4010   2.225   0.241   3.618
  669MeO     HB 4011   2.368   0.263   3.720
  669MeO     HC 4012   2.321   0.101   3.667
  669MeO      O 4013   2.406   0.218   3.521
  669MeO      H 4014   2.366   0.159   3.456
  670MeO      C 4015   4.849   1.938   0.818
  670MeO     HA 4016   4.858   1.955   0.710
  670MeO     HB 4017   0.007   1.988   0.868
  670MeO     HC 4018   4.756   1.982   0.852
  670MeO      O 4019   4.851   1.800   0.845
  670MeO      H 4020   4.782   1.759   0.792
  671MeO      C 4021   0.863   3.395   0.878
  671MeO     HA 4022   0.877   3.392   0.986
  671MeO     HB 4023   0.952   3.437   0.832
  671MeO     HC 4024   0.850   3.293   0.842
  671MeO      O 4025   0.750   3.473   0.845
  671MeO      H 4026   0.737   3.466   0.750
  672MeO      C 4027   3.882   0.977   2.831
  672MeO     HA 4028   3.977   0.925   2.840
  672MeO     HB 4029   3.851   1.011   2.929
  672MeO     HC 4030   3.896   1.065   2.767
  672MeO      O 4031   3.783   0.892   2.775
  672MeO      H 4032   3.701   0.943   2.772
  673MeO      C 4033   1.751   1.780   1.886
  673MeO     HA 4034   1.651   1.811   1.854
  673MeO     HB 4035   1.747   1.755   1.992
  673MeO     HC 4036   1.819   1.864   1.873
  673MeO      O 4037   1.793   1.669   1.810
  673MeO      H 4038   1.729   1.598   1.825
  674MeO      C 4039   1.012   1.654   0.230
  674MeO     HA 4040   1.061   1.732   0.288
  674MeO     HB 4041   1.086   1.577   0.206
  674MeO     HC 4042   0.976   1.698   0.137
  674MeO      O 4043   0.905   1.598   0.303
  674MeO      H 4044   0.844   1.671   0.322
  675MeO      C 4045   3.134   2.488   4.402
  675MeO     HA 4046   3.173   2.571   4.343
  675MeO     HB 4047   3.206   2.464   4.480
  675MeO     HC 4048   3.041   2.519   4.449
  675MeO      O 4049   3.114   2.376   4.318
  675MeO      H 4050   3.199   2.353   4.281
  676MeO      C 4051   2.353   2.275   1.097
  676MeO     HA 4052   2.417   2.243   1.180
  676MeO     HB 4053   2.369   2.381   1.081
  676MeO     HC 4054   2.249   2.260   1.126
  676MeO      O 4055   2.383   2.202   0.980
  676MeO      H 4056   2.323   2.234   0.911
  677MeO      C 4057   3.921   0.803   2.116
  677MeO     HA 4058   3.826   0.855   2.117
  677MeO     HB 4059   3.921   0.729   2.196
  677MeO     HC 4060   3.931   0.751   2.021
  677MeO      O 4061   4.028   0.894   2.134
  677MeO      H 4062   4.015   0.937   2.219
  678MeO      C 4063   3.210   4.497   4.099
  678MeO     HA 4064   3.287   4.422   4.080
  678MeO     HB 4065   3.185   4.544   4.004
  678MeO     HC 4066   3.252   4.573   4.165
  678MeO      O 4067   3.096   4.437   4.156
  678MeO      H 4068   3.062   4.374   4.091
  679MeO      C 4069   1.601   0.301   3.603
  679MeO     HA 4070   1.566   0.213   3.657
  679MeO     HB 4071   1.683   0.271   3.538
  679MeO     HC 4072   1.520   0.339   3.542
  679MeO      O 4073   1.645   0.400   3.694
  679MeO      H 4074   1.714   0.359   3.748
  680MeO      C 4075   3.906   2.115   1.210
  680MeO     HA 4076   3.893   2.129   1.103
  680MeO     HB 4077   3.807   2.114   1.256
  680MeO     HC 4078   3.953   2.019   1.227
  680MeO      O 4079   3.985   2.219   1.264
  680MeO      H 4080   3.939   2.302   1.244
  681MeO      C 4081   2.557   3.826   2.185
  681MeO     HA 4082   2.656   3.807   2.143
  681MeO     HB 4083   2.505   3.731   2.197
  681MeO     HC 4084   2.569   3.872   2.283
  681MeO      O 4085   2.483   3.911   2.100
  681MeO      H 4086   2.394   3.917   2.138
  682MeO      C 4087   3.190   3.387   3.459
  682MeO     HA 4088   3.121   3.405   3.542
  682MeO     HB 4089   3.241   3.481   3.436
  682MeO     HC 4090   3.131   3.357   3.372
  682MeO      O 4091   3.282   3.286   3.494
  682MeO      H 4092   3.231   3.207   3.514
  683MeO      C 4093   3.286   1.024   4.599
  683MeO     HA 4094   3.356   0.995   4.521
  683MeO     HB 4095   3.276   1.132   4.599
  683MeO     HC 4096   3.327   0.993   4.695
  683MeO      O 4097   3.161   0.961   4.577
  683MeO      H 4098   3.176   0.866   4.589
  684MeO      C 4099   2.796   3.281   3.534
  684MeO     HA 4100   2.893   3.241   3.504
  684MeO     HB 4101   2.812   3.354   3.614
  684MeO     HC 4102   2.753   3.333   3.449
  684MeO      O 4103   2.709   3.178   3.578
  684MeO      H 4104   2.627   3.221   3.604
  685MeO      C 4105   4.258   0.767   1.600
  685MeO     HA 4106   4.329   0.850   1.603
  685MeO     HB 4107   4.283   0.702   1.517
  685MeO     HC 4108   4.158   0.808   1.584
  685MeO      O 4109   4.262   0.695   1.722
  685MeO      H 4110   4.241   0.757   1.793
  686MeO      C 4111   2.313   4.125   0.093
  686MeO     HA 4112   2.243   4.041   0.099
  686MeO     HB 4113   2.363   4.122   4.922
  686MeO     HC 4114   2.387   4.113   0.172
  686MeO      O 4115   2.243   4.247   0.110
  686MeO      H 4116   2.202   4.244   0.197
  687MeO      C 4117   1.945   0.476   0.161
  687MeO     HA 4118   1.916   0.371   0.167
  687MeO     HB 4119   2.047   0.482   0.124
  687MeO     HC 4120   1.942   0.518   0.262
  687MeO      O 4121   1.857   0.547   0.076
  687MeO      H 4122   1.888   0.639   0.075
  688MeO      C 4123   1.630   2.597   1.469
  688MeO     HA 4124   1.691   2.607   1.559
  688MeO     HB 4125   1.576   2.691   1.454
  688MeO     HC 4126   1.696   2.581   1.384
  688MeO      O 4127   1.539   2.490   1.483
  688MeO      H 4128   1.490   2.483   1.400
  689MeO      C 4129   2.634   3.519   1.786
  689MeO     HA 4130   2.666   3.620   1.811
  689MeO     HB 4131   2.723   3.459   1.765
  689MeO     HC 4132   2.574   3.523   1.695
  689MeO      O 4133   2.559   3.464   1.892
  689MeO      H 4134   2.477   3.513   1.895
  690MeO      C 4135   2.430   3.596   0.730
  690MeO     HA 4136   2.429   3.515   0.803
  690MeO     HB 4137   2.530   3.638   0.726
  690MeO     HC 4138   2.361   3.673   0.763
  690MeO      O 4139   2.392   3.548   0.602
  690MeO      H 4140   2.397   3.624   0.542
  691MeO      C 4141   1.004   2.362   3.760
  691MeO     HA 4142   1.036   2.294   3.681
  691MeO     HB 4143   0.924   2.314   3.817
  691MeO     HC 4144   1.088   2.380   3.827
  691MeO      O 4145   0.959   2.484   3.705
  691MeO      H 4146   1.033   2.522   3.657
  692MeO      C 4147   1.571   4.699   4.551
  692MeO     HA 4148   1.606   4.603   4.512
  692MeO     HB 4149   1.646   4.774   4.529
  692MeO     HC 4150   1.478   4.725   4.499
  692MeO      O 4151   1.549   4.690   4.690
  692MeO      H 4152   1.633   4.664   4.730
  693MeO      C 4153   3.293   3.295   3.858
  693MeO     HA 4154   3.281   3.199   3.807
  693MeO     HB 4155   3.194   3.338   3.873
  693MeO     HC 4156   3.350   3.362   3.794
  693MeO      O 4157   3.358   3.276   3.982
  693MeO      H 4158   3.301   3.221   4.036
  694MeO      C 4159   4.205   2.293   2.610
  694MeO     HA 4160   4.142   2.219   2.660
  694MeO     HB 4161   4.188   2.285   2.502
  694MeO     HC 4162   4.176   2.392   2.643
  694MeO      O 4163   4.341   2.268   2.640
  694MeO      H 4164   4.362   2.179   2.610
  695MeO      C 4165   2.329   0.084   4.421
  695MeO     HA 4166   2.275   0.106   4.513
  695MeO     HB 4167   2.270   0.013   4.363
  695MeO     HC 4168   2.424   0.038   4.446
  695MeO      O 4169   2.348   0.203   4.347
  695MeO      H 4170   2.261   0.238   4.326
  696MeO      C 4171   4.700   2.400   1.541
  696MeO     HA 4172   4.600   2.441   1.526
  696MeO     HB 4173   4.773   2.479   1.522
  696MeO     HC 4174   4.710   2.369   1.645
  696MeO      O 4175   4.722   2.291   1.455
  696MeO      H 4176   4.717   2.325   1.365
  697MeO      C 4177   2.543   1.103   2.461
  697MeO     HA 4178   2.497   1.043   2.538
  697MeO     HB 4179   2.636   1.144   2.500
  697MeO     HC 4180   2.477   1.185   2.435
  697MeO      O 4181   2.569   1.023   2.347
  697MeO      H 4182   2.607   1.081   2.280
  698MeO      C 4183   3.819   1.863   2.342
  698MeO     HA 4184   3.820   1.776   2.276
  698MeO     HB 4185   3.835   1.952   2.282
  698MeO     HC 4186   3.721   1.870   2.388
  698MeO      O 4187   3.918   1.852   2.442
  698MeO      H 4188   3.891   1.783   2.501
  699MeO      C 4189   0.696   0.543   2.747
  699MeO     HA 4190   0.649   0.502   2.658
  699MeO     HB 4191   0.676   0.476   2.830
  699MeO     HC 4192   0.803   0.548   2.731
  699MeO      O 4193   0.643   0.671   2.775
  699MeO      H 4194   0.549   0.660   2.788
  700MeO      C 4195   2.727   3.735   4.157
  700MeO     HA 4196   2.716   3.657   4.082
  700MeO     HB 4197   2.670   3.823   4.126
  700MeO     HC 4198   2.686   3.698   4.251
  700MeO      O 4199   2.864   3.768   4.172
  700MeO      H 4200   2.908   3.688   4.202
  701MeO      C 4201   3.505   2.234   1.731
  701MeO     HA 4202   3.416   2.265   1.786
  701MeO     HB 4203   3.590   2.291   1.768
  701MeO     HC 4204   3.491   2.257   1.626
  701MeO      O 4205   3.526   2.096   1.748
  701MeO      H 4206   3.447   2.051   1.715
  702MeO      C 4207   1.236   3.093   1.828
  702MeO     HA 4208   1.152   3.024   1.830
  702MeO     HB 4209   1.241   3.138   1.729
  702MeO     HC 4210   1.328   3.036   1.845
  702MeO      O 4211   1.222   3.193   1.927
  702MeO      H 4212   1.300   3.248   1.921
  703MeO      C 4213   3.306   3.290   4.393
  703MeO     HA 4214   3.379   3.314   4.315
  703MeO     HB 4215   3.216   3.348   4.374
  703MeO     HC 4216   3.347   3.319   4.489
  703MeO      O 4217   3.277   3.152   4.390
  703MeO      H 4218   3.244   3.132   4.302
  704MeO      C 4219   1.434   0.641   0.540
  704MeO     HA 4220   1.399   0.707   0.461
  704MeO     HB 4221   1.425   0.692   0.636
  704MeO     HC 4222   1.539   0.619   0.523
  704MeO      O 4223   1.359   0.521   0.539
  704MeO      H 4224   1.363   0.491   0.447
  705MeO      C 4225   1.980   0.266   4.319
  705MeO     HA 4226   1.908   0.292   4.240
  705MeO     HB 4227   1.982   0.158   4.329
  705MeO     HC 4228   1.945   0.309   4.413
  705MeO      O 4229   2.108   0.316   4.287
  705MeO      H 4230   2.099   0.412   4.278
  706MeO      C 4231   1.728   4.590   3.656
  706MeO     HA 4232   1.711   4.667   3.730
  706MeO     HB 4233   1.731   4.636   3.557
  706MeO     HC 4234   1.826   4.545   3.675
  706MeO      O 4235   1.627   4.491   3.661
  706MeO      H 4236   1.644   4.429   3.591
  707MeO      C 4237   0.506   2.793   3.089
  707MeO     HA 4238   0.551   2.700   3.055
  707MeO     HB 4239   0.409   2.769   3.134
  707MeO     HC 4240   0.489   2.857   3.003
  707MeO      O 4241   0.590   2.856   3.183
  707MeO      H 4242   0.603   2.794   3.256
  708MeO      C 4243   4.507   1.192   0.498
  708MeO     HA 4244   4.536   1.088   0.480
  708MeO     HB 4245   4.523   1.214   0.604
  708MeO     HC 4246   4.401   1.202   0.476
  708MeO      O 4247   4.583   1.279   0.418
  708MeO      H 4248   4.676   1.261   0.439
  709MeO      C 4249   3.788   3.162   3.290
  709MeO     HA 4250   3.730   3.245   3.328
  709MeO     HB 4251   3.803   3.177   3.183
  709MeO     HC 4252   3.731   3.070   3.304
  709MeO      O 4253   3.913   3.153   3.356
  709MeO      H 4254   3.965   3.087   3.309
  710MeO      C 4255   0.011   0.721   0.826
  710MeO     HA 4256   0.012   0.721   0.935
  710MeO     HB 4257   0.112   0.701   0.790
  710MeO     HC 4258   4.870   0.642   0.792
  710MeO      O 4259   4.893   0.846   0.776
  710MeO      H 4260   4.889   0.839   0.681
  711MeO      C 4261   4.501   2.053   0.667
  711MeO     HA 4262   4.585   2.121   0.649
  711MeO     HB 4263   4.542   1.958   0.701
  711MeO     HC 4264   4.439   2.095   0.746
  711MeO      O 4265   4.426   2.037   0.548
  711MeO      H 4266   4.390   2.124   0.528
  712MeO      C 4267   0.682   4.326   2.504
  712MeO     HA 4268   0.731   4.398   2.570
  712MeO     HB 4269   0.691   4.227   2.549
  712MeO     HC 4270   0.734   4.326   2.408
  712MeO      O 4271   0.547   4.360   2.486
  712MeO      H 4272   0.509   4.293   2.427
  713MeO      C 4273   2.778   3.113   2.615
  713MeO     HA 4274   2.759   3.026   2.677
  713MeO     HB 4275   2.883   3.113   2.585
  713MeO     HC 4276   2.759   3.203   2.674
  713MeO      O 4277   2.694   3.112   2.501
  713MeO      H 4278   2.722   3.186   2.445
  714MeO      C 4279   0.067   2.873   3.956
  714MeO     HA 4280   0.067   2.825   3.858
  714MeO     HB 4281   0.150   2.943   3.960
  714MeO     HC 4282   4.899   2.928   3.968
  714MeO      O 4283   0.080   2.775   4.058
  714MeO      H 4284   0.161   2.727   4.041
  715MeO      C 4285   2.430   1.594   3.928
  715MeO     HA 4286   2.483   1.502   3.902
  715MeO     HB 4287   2.356   1.615   3.850
  715MeO     HC 4288   2.501   1.676   3.930
  715MeO      O 4289   2.365   1.581   4.053
  715MeO      H 4290   2.322   1.666   4.070
  716MeO      C 4291   4.628   0.440   0.629
  716MeO     HA 4292   4.677   0.528   0.671
  716MeO     HB 4293   4.530   0.470   0.592
  716MeO     HC 4294   4.687   0.404   0.545
  716MeO      O 4295   4.614   0.339   0.726
  716MeO      H 4296   4.570   0.265   0.683
  717MeO      C 4297   2.091   4.811   1.365
  717MeO     HA 4298   2.055   4.823   1.467
  717MeO     HB 4299   2.044   4.886   1.302
  717MeO     HC 4300   2.199   4.828   1.364
  717MeO      O 4301   2.061   4.681   1.318
  717MeO      H 4302   1.966   4.669   1.327
  718MeO      C 4303   2.701   0.996   1.151
  718MeO     HA 4304   2.637   1.082   1.172
  718MeO     HB 4305   2.794   1.032   1.108
  718MeO     HC 4306   2.651   0.933   1.078
  718MeO      O 4307   2.725   0.922   1.270
  718MeO      H 4308   2.639   0.896   1.303
  719MeO      C 4309   2.799   1.736   1.680
  719MeO     HA 4310   2.807   1.695   1.780
  719MeO     HB 4311   2.796   1.653   1.609
  719MeO     HC 4312   2.889   1.795   1.660
  719MeO      O 4313   2.684   1.816   1.668
  719MeO      H 4314   2.693   1.888   1.731
  720MeO      C 4315   4.736   3.937   3.279
  720MeO     HA 4316   4.739   3.852   3.211
  720MeO     HB 4317   4.838   3.965   3.305
  720MeO     HC 4318   4.688   4.021   3.227
  720MeO      O 4319   4.663   3.904   3.395
  720MeO      H 4320   4.708   3.828   3.435
  721MeO      C 4321   4.837   0.143   1.766
  721MeO     HA 4322   4.892   0.049   1.760
  721MeO     HB 4323   4.731   0.123   1.749
  721MeO     HC 4324   4.848   0.184   1.867
  721MeO      O 4325   4.885   0.236   1.671
  721MeO      H 4326   4.830   0.315   1.679
  722MeO      C 4327   3.596   1.292   3.512
  722MeO     HA 4328   3.522   1.296   3.591
  722MeO     HB 4329   3.610   1.187   3.483
  722MeO     HC 4330   3.559   1.347   3.425
  722MeO      O 4331   3.718   1.347   3.556
  722MeO      H 4332   3.701   1.440   3.575
  723MeO      C 4333   0.611   4.418   0.155
  723MeO     HA 4334   0.525   4.362   0.118
  723MeO     HB 4335   0.586   4.460   0.252
  723MeO     HC 4336   0.694   4.348   0.167
  723MeO      O 4337   0.645   4.521   0.064
  723MeO      H 4338   0.665   4.479   4.905
  724MeO      C 4339   1.062   3.793   1.956
  724MeO     HA 4340   0.968   3.787   2.010
  724MeO     HB 4341   1.121   3.704   1.978
  724MeO     HC 4342   1.041   3.795   1.849
  724MeO      O 4343   1.132   3.910   1.994
  724MeO      H 4344   1.075   3.984   1.969
  725MeO      C 4345   4.609   2.217   2.363
  725MeO     HA 4346   4.552   2.124   2.369
  725MeO     HB 4347   4.615   2.261   2.462
  725MeO     HC 4348   4.555   2.286   2.298
  725MeO      O 4349   4.738   2.193   2.311
  725MeO      H 4350   4.778   2.279   2.294
  726MeO      C 4351   3.431   3.060   1.643
  726MeO     HA 4352   3.475   3.123   1.566
  726MeO     HB 4353   3.478   2.961   1.637
  726MeO     HC 4354   3.325   3.049   1.623
  726MeO      O 4355   3.453   3.117   1.770
  726MeO      H 4356   3.548   3.125   1.783
  727MeO      C 4357   3.661   1.612   3.760
  727MeO     HA 4358   3.677   1.511   3.797
  727MeO     HB 4359   3.568   1.650   3.800
  727MeO     HC 4360   3.742   1.675   3.796
  727MeO      O 4361   3.658   1.614   3.618
  727MeO      H 4362   3.656   1.708   3.593
  728MeO      C 4363   4.506   1.046   0.166
  728MeO     HA 4364   4.441   1.122   0.210
  728MeO     HB 4365   4.475   1.031   0.062
  728MeO     HC 4366   4.608   1.085   0.166
  728MeO      O 4367   4.498   0.925   0.238
  728MeO      H 4368   4.544   0.858   0.187
  729MeO      C 4369   1.250   4.485   4.413
  729MeO     HA 4370   1.145   4.486   4.439
  729MeO     HB 4371   1.309   4.488   4.505
  729MeO     HC 4372   1.273   4.574   4.355
  729MeO      O 4373   1.281   4.369   4.339
  729MeO      H 4374   1.227   4.371   4.259
  730MeO      C 4375   4.299   2.231   4.447
  730MeO     HA 4376   4.393   2.240   4.502
  730MeO     HB 4377   4.219   2.271   4.509
  730MeO     HC 4378   4.280   2.126   4.429
  730MeO      O 4379   4.307   2.302   4.326
  730MeO      H 4380   4.323   2.394   4.349
  731MeO      C 4381   4.625   4.140   1.115
  731MeO     HA 4382   4.561   4.147   1.027
  731MeO     HB 4383   4.673   4.236   1.131
  731MeO     HC 4384   4.562   4.118   1.202
  731MeO      O 4385   4.722   4.039   1.098
  731MeO      H 4386   4.673   3.957   1.078
  732MeO      C 4387   0.155   3.697   4.604
  732MeO     HA 4388   0.066   3.700   4.543
  732MeO     HB 4389   0.228   3.768   4.564
  732MeO     HC 4390   0.129   3.727   4.706
  732MeO      O 4391   0.210   3.566   4.606
  732MeO      H 4392   0.289   3.570   4.662
  733MeO      C 4393   4.847   4.924   2.382
  733MeO     HA 4394   0.007   4.895   2.443
  733MeO     HB 4395   4.882   0.032   2.284
  733MeO     HC 4396   4.797   0.081   2.431
  733MeO      O 4397   4.758   4.815   2.370
  733MeO      H 4398   4.724   4.800   2.459
  734MeO      C 4399   0.013   0.820   3.887
  734MeO     HA 4400   0.083   0.769   3.954
  734MeO     HB 4401   4.888   0.899   3.942
  734MeO     HC 4402   0.071   0.865   3.806
  734MeO      O 4403   4.846   0.728   3.834
  734MeO      H 4404   4.896   0.660   3.788
  735MeO      C 4405   2.643   3.953   0.202
  735MeO     HA 4406   2.640   4.018   0.290
  735MeO     HB 4407   2.635   4.016   0.113
  735MeO     HC 4408   2.738   3.901   0.200
  735MeO      O 4409   2.537   3.859   0.205
  735MeO      H 4410   2.544   3.809   0.123
  736MeO      C 4411   3.431   4.860   1.229
  736MeO     HA 4412   3.522   4.800   1.240
  736MeO     HB 4413   3.431   0.010   1.307
  736MeO     HC 4414   3.345   4.795   1.243
  736MeO      O 4415   3.428   4.920   1.101
  736MeO      H 4416   3.507   0.049   1.094
  737MeO      C 4417   2.638   3.990   4.446
  737MeO     HA 4418   2.681   3.897   4.484
  737MeO     HB 4419   2.624   3.980   4.338
  737MeO     HC 4420   2.708   4.071   4.465
  737MeO      O 4421   2.514   4.015   4.509
  737MeO      H 4422   2.457   3.940   4.489
  738MeO      C 4423   2.417   1.997   1.991
  738MeO     HA 4424   2.330   2.018   2.053
  738MeO     HB 4425   2.384   1.953   1.897
  738MeO     HC 4426   2.480   1.925   2.043
  738MeO      O 4427   2.490   2.116   1.966
  738MeO      H 4428   2.573   2.088   1.926
  739MeO      C 4429   3.043   0.820   1.350
  739MeO     HA 4430   3.148   0.795   1.342
  739MeO     HB 4431   3.032   0.907   1.414
  739MeO     HC 4432   2.990   0.737   1.397
  739MeO      O 4433   2.988   0.847   1.222
  739MeO      H 4434   2.897   0.874   1.236
  740MeO      C 4435   2.949   3.948   2.354
  740MeO     HA 4436   2.932   3.969   2.459
  740MeO     HB 4437   3.036   4.005   2.321
  740MeO     HC 4438   2.970   3.842   2.342
  740MeO      O 4439   2.836   3.984   2.278
  740MeO      H 4440   2.853   3.961   2.186
  741MeO      C 4441   4.043   1.139   4.564
  741MeO     HA 4442   4.064   1.034   4.542
  741MeO     HB 4443   4.007   1.186   4.473
  741MeO     HC 4444   4.135   1.187   4.594
  741MeO      O 4445   3.946   1.150   4.667
  741MeO      H 4446   3.930   1.244   4.682
  742MeO      C 4447   2.963   2.254   2.198
  742MeO     HA 4448   2.858   2.275   2.221
  742MeO     HB 4449   3.017   2.247   2.292
  742MeO     HC 4450   2.968   2.159   2.147
  742MeO      O 4451   3.017   2.357   2.118
  742MeO      H 4452   3.013   2.438   2.170
  743MeO      C 4453   1.140   3.995   2.782
  743MeO     HA 4454   1.201   4.083   2.801
  743MeO     HB 4455   1.101   3.958   2.876
  743MeO     HC 4456   1.204   3.918   2.739
  743MeO      O 4457   1.034   4.026   2.694
  743MeO      H 4458   0.978   4.088   2.742
  744MeO      C 4459   3.629   4.087   2.138
  744MeO     HA 4460   3.591   4.184   2.105
  744MeO     HB 4461   3.691   4.045   2.058
  744MeO     HC 4462   3.692   4.102   2.225
  744MeO      O 4463   3.523   3.999   2.168
  744MeO      H 4464   3.565   3.914   2.189
  745MeO      C 4465   1.035   4.508   0.894
  745MeO     HA 4466   0.932   4.480   0.871
  745MeO     HB 4467   1.036   4.615   0.915
  745MeO     HC 4468   1.066   4.455   0.983
  745MeO      O 4469   1.120   4.478   0.785
  745MeO      H 4470   1.086   4.528   0.709
  746MeO      C 4471   4.133   3.852   2.224
  746MeO     HA 4472   4.112   3.800   2.317
  746MeO     HB 4473   4.061   3.932   2.211
  746MeO     HC 4474   4.233   3.896   2.231
  746MeO      O 4475   4.127   3.763   2.114
  746MeO      H 4476   4.146   3.815   2.035
  747MeO      C 4477   0.966   4.873   2.872
  747MeO     HA 4478   1.037   4.912   2.799
  747MeO     HB 4479   1.005   4.779   2.911
  747MeO     HC 4480   0.871   4.853   2.822
  747MeO      O 4481   0.948   0.039   2.978
  747MeO      H 4482   1.032   0.045   3.024
  748MeO      C 4483   3.498   1.042   1.789
  748MeO     HA 4484   3.395   1.020   1.818
  748MeO     HB 4485   3.525   1.141   1.825
  748MeO     HC 4486   3.504   1.042   1.680
  748MeO      O 4487   3.586   0.945   1.843
  748MeO      H 4488   3.674   0.966   1.810
  749MeO      C 4489   2.856   0.426   4.007
  749MeO     HA 4490   2.802   0.340   3.968
  749MeO     HB 4491   2.959   0.423   3.969
  749MeO     HC 4492   2.859   0.420   4.115
  749MeO      O 4493   2.793   0.546   3.966
  749MeO      H 4494   2.839   0.619   4.006
  750MeO      C 4495   0.161   3.995   4.275
  750MeO     HA 4496   0.161   3.910   4.345
  750MeO     HB 4497   0.075   4.058   4.299
  750MeO     HC 4498   0.148   3.956   4.174
  750MeO      O 4499   0.281   4.068   4.287
  750MeO      H 4500   0.288   4.092   4.380
  751MeO      C 4501   2.831   0.501   3.636
  751MeO     HA 4502   2.728   0.512   3.671
  751MeO     HB 4503   2.882   0.596   3.651
  751MeO     HC 4504   2.880   0.425   3.696
  751MeO      O 4505   2.833   0.466   3.499
  751MeO      H 4506   2.780   0.385   3.491
  752MeO      C 4507   2.195   0.567   3.953
  752MeO     HA 4508   2.254   0.624   4.024
  752MeO     HB 4509   2.093   0.559   3.992
  752MeO     HC 4510   2.237   0.467   3.945
  752MeO      O 4511   2.194   0.631   3.827
  752MeO      H 4512   2.163   0.720   3.840
  753MeO      C 4513   0.937   2.866   3.119
  753MeO     HA 4514   0.848   2.928   3.107
  753MeO     HB 4515   0.970   2.872   3.223
  753MeO     HC 4516   0.909   2.762   3.098
  753MeO      O 4517   1.038   2.908   3.031
  753MeO      H 4518   1.003   2.896   2.942
  754MeO      C 4519   3.619   0.275   0.768
  754MeO     HA 4520   3.633   0.192   0.698
  754MeO     HB 4521   3.523   0.261   0.819
  754MeO     HC 4522   3.615   0.367   0.710
  754MeO      O 4523   3.725   0.279   0.861
  754MeO      H 4524   3.805   0.293   0.809
  755MeO      C 4525   3.229   0.699   1.041
  755MeO     HA 4526   3.146   0.640   1.003
  755MeO     HB 4527   3.317   0.680   0.978
  755MeO     HC 4528   3.252   0.666   1.142
  755MeO      O 4529   3.196   0.837   1.041
  755MeO      H 4530   3.119   0.845   1.099
  756MeO      C 4531   3.802   0.324   2.742
  756MeO     HA 4532   3.780   0.218   2.729
  756MeO     HB 4533   3.889   0.333   2.806
  756MeO     HC 4534   3.718   0.371   2.793
  756MeO      O 4535   3.826   0.386   2.618
  756MeO      H 4536   3.845   0.478   2.636
  757MeO      C 4537   0.681   1.597   0.672
  757MeO     HA 4538   0.624   1.572   0.583
  757MeO     HB 4539   0.742   1.685   0.649
  757MeO     HC 4540   0.612   1.624   0.752
  757MeO      O 4541   0.763   1.489   0.711
  757MeO      H 4542   0.818   1.466   0.634
  758MeO      C 4543   4.870   0.778   2.522
  758MeO     HA 4544   4.799   0.696   2.514
  758MeO     HB 4545   4.819   0.871   2.499
  758MeO     HC 4546   4.906   0.783   2.625
  758MeO      O 4547   0.052   0.759   2.432
  758MeO      H 4548   0.012   0.748   2.345
  759MeO      C 4549   3.308   1.594   0.972
  759MeO     HA 4550   3.296   1.702   0.960
  759MeO     HB 4551   3.317   1.549   0.873
  759MeO     HC 4552   3.219   1.554   1.020
  759MeO      O 4553   3.423   1.565   1.049
  759MeO      H 4554   3.431   1.468   1.050
  760MeO      C 4555   4.074   0.841   1.258
  760MeO     HA 4556   4.087   0.814   1.154
  760MeO     HB 4557   3.971   0.874   1.273
  760MeO     HC 4558   4.091   0.752   1.319
  760MeO      O 4559   4.165   0.943   1.294
  760MeO      H 4560   4.253   0.908   1.276
  761MeO      C 4561   4.733   4.025   2.896
  761MeO     HA 4562   4.744   3.916   2.897
  761MeO     HB 4563   4.756   4.062   2.996
  761MeO     HC 4564   4.806   4.067   2.827
  761MeO      O 4565   4.602   4.060   2.859
  761MeO      H 4566   4.542   4.009   2.914
  762MeO      C 4567   4.618   0.164   2.124
  762MeO     HA 4568   4.713   0.186   2.171
  762MeO     HB 4569   4.551   0.120   2.198
  762MeO     HC 4570   4.574   0.258   2.089
  762MeO      O 4571   4.636   0.075   2.015
  762MeO      H 4572   4.668   4.918   2.052
  763MeO      C 4573   1.943   3.915   0.369
  763MeO     HA 4574   1.930   3.818   0.417
  763MeO     HB 4575   1.845   3.952   0.339
  763MeO     HC 4576   2.004   3.901   0.279
  763MeO      O 4577   2.004   4.006   0.458
  763MeO      H 4578   1.947   4.012   0.535
  764MeO      C 4579   0.912   3.490   2.138
  764MeO     HA 4580   1.006   3.540   2.162
  764MeO     HB 4581   0.927   3.383   2.142
  764MeO     HC 4582   0.882   3.518   2.037
  764MeO      O 4583   0.812   3.529   2.231
  764MeO      H 4584   0.843   3.502   2.318
  765MeO      C 4585   1.201   0.413   3.301
  765MeO     HA 4586   1.290   0.381   3.354
  765MeO     HB 4587   1.216   0.515   3.265
  765MeO     HC 4588   1.117   0.413   3.372
  765MeO      O 4589   1.172   0.327   3.193
  765MeO      H 4590   1.089   0.358   3.154
  766MeO      C 4591   0.863   3.012   4.779
  766MeO     HA 4592   0.930   2.929   4.756
  766MeO     HB 4593   0.799   3.030   4.693
  766MeO     HC 4594   0.923   3.101   4.798
  766MeO      O 4595   0.785   2.980   4.892
  766MeO      H 4596   0.733   2.902   4.869
  767MeO      C 4597   0.973   3.219   2.735
  767MeO     HA 4598   0.938   3.178   2.830
  767MeO     HB 4599   0.899   3.289   2.698
  767MeO     HC 4600   1.066   3.273   2.753
  767MeO      O 4601   0.994   3.115   2.642
  767MeO      H 4602   1.029   3.155   2.562
  768MeO      C 4603   1.077   2.312   4.485
  768MeO     HA 4604   0.974   2.321   4.448
  768MeO     HB 4605   1.140   2.275   4.404
  768MeO     HC 4606   1.112   2.411   4.514
  768MeO      O 4607   1.083   2.225   4.596
  768MeO      H 4608   1.175   2.220   4.623
  769MeO      C 4609   0.182   1.000   2.217
  769MeO     HA 4610   0.212   1.017   2.320
  769MeO     HB 4611   0.177   0.893   2.199
  769MeO     HC 4612   0.082   1.043   2.203
  769MeO      O 4613   0.274   1.061   2.129
  769MeO      H 4614   0.277   1.156   2.150
  770MeO      C 4615   2.590   0.214   0.194
  770MeO     HA 4616   2.672   0.268   0.242
  770MeO     HB 4617   2.499   0.273   0.205
  770MeO     HC 4618   2.576   0.118   0.244
  770MeO      O 4619   2.618   0.195   0.056
  770MeO      H 4620   2.629   0.282   0.018
  771MeO      C 4621   1.521   3.213   3.058
  771MeO     HA 4622   1.601   3.285   3.041
  771MeO     HB 4623   1.561   3.131   3.118
  771MeO     HC 4624   1.489   3.173   2.962
  771MeO      O 4625   1.413   3.274   3.125
  771MeO      H 4626   1.344   3.208   3.131
  772MeO      C 4627   3.835   1.247   3.215
  772MeO     HA 4628   3.865   1.306   3.302
  772MeO     HB 4629   3.906   1.268   3.135
  772MeO     HC 4630   3.841   1.142   3.241
  772MeO      O 4631   3.705   1.282   3.174
  772MeO      H 4632   3.704   1.378   3.162
  773MeO      C 4633   2.832   4.156   3.209
  773MeO     HA 4634   2.892   4.128   3.123
  773MeO     HB 4635   2.743   4.210   3.174
  773MeO     HC 4636   2.799   4.064   3.259
  773MeO      O 4637   2.907   4.236   3.298
  773MeO      H 4638   2.984   4.183   3.324
  774MeO      C 4639   2.840   4.494   1.739
  774MeO     HA 4640   2.777   4.442   1.811
  774MeO     HB 4641   2.850   4.598   1.770
  774MeO     HC 4642   2.791   4.491   1.642
  774MeO      O 4643   2.967   4.433   1.732
  774MeO      H 4644   3.008   4.444   1.818
  775MeO      C 4645   2.026   0.686   4.336
  775MeO     HA 4646   1.920   0.664   4.322
  775MeO     HB 4647   2.046   0.786   4.297
  775MeO     HC 4648   2.048   0.686   4.442
  775MeO      O 4649   2.105   0.591   4.269
  775MeO      H 4650   2.197   0.616   4.282
  776MeO      C 4651   4.571   4.299   3.370
  776MeO     HA 4652   4.620   4.385   3.417
  776MeO     HB 4653   4.525   4.238   3.448
  776MeO     HC 4654   4.647   4.239   3.320
  776MeO      O 4655   4.474   4.343   3.277
  776MeO      H 4656   4.521   4.389   3.207
  777MeO      C 4657   2.077   2.938   3.429
  777MeO     HA 4658   2.100   3.011   3.351
  777MeO     HB 4659   1.969   2.931   3.438
  777MeO     HC 4660   2.115   2.841   3.397
  777MeO      O 4661   2.134   2.978   3.552
  777MeO      H 4662   2.094   3.063   3.572
  778MeO      C 4663   0.266   3.642   2.538
  778MeO     HA 4664   0.321   3.696   2.615
  778MeO     HB 4665   0.165   3.623   2.575
  778MeO     HC 4666   0.259   3.705   2.450
  778MeO      O 4667   0.330   3.520   2.506
  778MeO      H 4668   0.282   3.482   2.432
  779MeO      C 4669   4.242   2.391   0.481
  779MeO     HA 4670   4.187   2.423   0.569
  779MeO     HB 4671   4.172   2.348   0.410
  779MeO     HC 4672   4.287   2.479   0.436
  779MeO      O 4673   4.341   2.298   0.518
  779MeO      H 4674   4.392   2.338   0.589
  780MeO      C 4675   1.159   4.040   0.410
  780MeO     HA 4676   1.142   4.147   0.401
  780MeO     HB 4677   1.066   3.987   0.388
  780MeO     HC 4678   1.187   4.017   0.513
  780MeO      O 4679   1.260   3.998   0.321
  780MeO      H 4680   1.269   3.903   0.334
  781MeO      C 4681   0.056   3.989   0.885
  781MeO     HA 4682   0.130   4.000   0.806
  781MeO     HB 4683   0.107   3.983   0.981
  781MeO     HC 4684   0.001   3.896   0.869
  781MeO      O 4685   4.892   4.099   0.885
  781MeO      H 4686   4.832   4.085   0.959
  782MeO      C 4687   4.336   0.694   0.411
  782MeO     HA 4688   4.284   0.639   0.490
  782MeO     HB 4689   4.425   0.637   0.383
  782MeO     HC 4690   4.272   0.701   0.324
  782MeO      O 4691   4.373   0.823   0.456
  782MeO      H 4692   4.417   0.865   0.381
  783MeO      C 4693   2.104   4.585   1.661
  783MeO     HA 4694   2.211   4.601   1.649
  783MeO     HB 4695   2.058   4.679   1.691
  783MeO     HC 4696   2.063   4.555   1.565
  783MeO      O 4697   2.080   4.486   1.758
  783MeO      H 4698   1.985   4.484   1.774
  784MeO      C 4699   2.582   3.972   3.727
  784MeO     HA 4700   2.602   3.905   3.811
  784MeO     HB 4701   2.624   4.070   3.748
  784MeO     HC 4702   2.632   3.932   3.638
  784MeO      O 4703   2.443   3.982   3.703
  784MeO      H 4704   2.433   4.042   3.627
  785MeO      C 4705   0.250   1.634   2.911
  785MeO     HA 4706   0.283   1.733   2.878
  785MeO     HB 4707   0.243   1.635   3.020
  785MeO     HC 4708   0.323   1.560   2.881
  785MeO      O 4709   0.124   1.605   2.854
  785MeO      H 4710   0.062   1.672   2.885
  786MeO      C 4711   2.690   1.959   2.588
  786MeO     HA 4712   2.719   1.990   2.488
  786MeO     HB 4713   2.679   2.048   2.650
  786MeO     HC 4714   2.768   1.896   2.630
  786MeO      O 4715   2.568   1.889   2.583
  786MeO      H 4716   2.500   1.950   2.552
  787MeO      C 4717   2.553   4.873   4.750
  787MeO     HA 4718   2.569   4.794   4.677
  787MeO     HB 4719   2.511   0.034   4.700
  787MeO     HC 4720   2.481   4.838   4.824
  787MeO      O 4721   2.675   4.908   4.813
  787MeO      H 4722   2.655   0.053   4.875
  788MeO      C 4723   2.637   0.686   3.308
  788MeO     HA 4724   2.688   0.767   3.256
  788MeO     HB 4725   2.664   0.591   3.262
  788MeO     HC 4726   2.670   0.685   3.412
  788MeO      O 4727   2.497   0.705   3.303
  788MeO      H 4728   2.456   0.630   3.347
  789MeO      C 4729   2.338   3.260   3.651
  789MeO     HA 4730   2.286   3.337   3.708
  789MeO     HB 4731   2.338   3.168   3.709
  789MeO     HC 4732   2.284   3.244   3.558
  789MeO      O 4733   2.471   3.301   3.624
  789MeO      H 4734   2.464   3.383   3.572
  790MeO      C 4735   0.224   0.294   3.092
  790MeO     HA 4736   0.275   0.278   3.187
  790MeO     HB 4737   0.126   0.337   3.113
  790MeO     HC 4738   0.282   0.366   3.034
  790MeO      O 4739   0.210   0.172   3.024
  790MeO      H 4740   0.168   0.111   3.085
  791MeO      C 4741   1.664   0.735   0.890
  791MeO     HA 4742   1.720   0.809   0.947
  791MeO     HB 4743   1.732   0.686   0.820
  791MeO     HC 4744   1.587   0.786   0.832
  791MeO      O 4745   1.605   0.639   0.976
  791MeO      H 4746   1.559   0.577   0.919
  792MeO      C 4747   2.921   4.223   0.313
  792MeO     HA 4748   3.001   4.248   0.382
  792MeO     HB 4749   2.915   4.302   0.238
  792MeO     HC 4750   2.827   4.220   0.368
  792MeO      O 4751   2.946   4.099   0.251
  792MeO      H 4752   2.964   4.034   0.320
  793MeO      C 4753   3.360   4.834   0.281
  793MeO     HA 4754   3.267   4.804   0.331
  793MeO     HB 4755   3.357   0.016   0.267
  793MeO     HC 4756   3.444   4.809   0.346
  793MeO      O 4757   3.371   4.769   0.156
  793MeO      H 4758   3.290   4.792   0.108
  794MeO      C 4759   0.801   4.519   4.691
  794MeO     HA 4760   0.796   4.613   4.746
  794MeO     HB 4761   0.899   4.474   4.707
  794MeO     HC 4762   0.790   4.540   4.585
  794MeO      O 4763   0.699   4.430   4.734
  794MeO      H 4764   0.709   4.350   4.680
  795MeO      C 4765   3.138   4.076   2.781
  795MeO     HA 4766   3.195   3.983   2.784
  795MeO     HB 4767   3.207   4.159   2.793
  795MeO     HC 4768   3.090   4.084   2.683
  795MeO      O 4769   3.041   4.077   2.883
  795MeO      H 4770   2.989   4.158   2.872
  796MeO      C 4771   2.140   3.608   2.384
  796MeO     HA 4772   2.042   3.561   2.389
  796MeO     HB 4773   2.204   3.564   2.460
  796MeO     HC 4774   2.184   3.586   2.286
  796MeO      O 4775   2.129   3.747   2.403
  796MeO      H 4776   2.091   3.760   2.491
  797MeO      C 4777   0.592   1.238   0.254
  797MeO     HA 4778   0.647   1.306   0.320
  797MeO     HB 4779   0.621   1.259   0.151
  797MeO     HC 4780   0.486   1.258   0.266
  797MeO      O 4781   0.620   1.104   0.288
  797MeO      H 4782   0.598   1.094   0.381
  798MeO      C 4783   0.741   0.384   4.396
  798MeO     HA 4784   0.646   0.339   4.368
  798MeO     HB 4785   0.792   0.316   4.464
  798MeO     HC 4786   0.802   0.396   4.306
  798MeO      O 4787   0.720   0.509   4.458
  798MeO      H 4788   0.663   0.492   4.534
  799MeO      C 4789   1.080   1.062   4.196
  799MeO     HA 4790   1.081   0.967   4.249
  799MeO     HB 4791   1.120   1.047   4.096
  799MeO     HC 4792   0.977   1.096   4.187
  799MeO      O 4793   1.158   1.158   4.264
  799MeO      H 4794   1.147   1.241   4.216
  800MeO      C 4795   1.556   4.867   0.043
  800MeO     HA 4796   1.538   4.765   0.076
  800MeO     HB 4797   1.534   0.009   0.126
  800MeO     HC 4798   1.662   4.877   0.018
  800MeO      O 4799   1.477   4.898   4.857
  800MeO      H 4800   1.494   4.829   4.791
  801MeO      C 4801   2.172   2.905   2.452
  801MeO     HA 4802   2.239   2.895   2.367
  801MeO     HB 4803   2.209   2.842   2.533
  801MeO     HC 4804   2.073   2.868   2.423
  801MeO      O 4805   2.164   3.040   2.493
  801MeO      H 4806   2.255   3.069   2.510
  802MeO      C 4807   4.148   4.670   3.230
  802MeO     HA 4808   4.041   4.685   3.244
  802MeO     HB 4809   4.202   4.735   3.298
  802MeO     HC 4810   4.171   4.566   3.255
  802MeO      O 4811   4.184   4.695   3.096
  802MeO      H 4812   4.133   4.634   3.043
  803MeO      C 4813   2.438   0.838   1.490
  803MeO     HA 4814   2.354   0.770   1.505
  803MeO     HB 4815   2.409   0.936   1.529
  803MeO     HC 4816   2.523   0.801   1.548
  803MeO      O 4817   2.471   0.846   1.353
  803MeO      H 4818   2.392   0.880   1.307
  804MeO      C 4819   0.209   2.063   3.560
  804MeO     HA 4820   0.112   2.019   3.584
  804MeO     HB 4821   0.215   2.160   3.609
  804MeO     HC 4822   0.215   2.078   3.453
  804MeO      O 4823   0.313   1.978   3.605
  804MeO      H 4824   0.294   1.890   3.571
  805MeO      C 4825   1.562   3.137   4.000
  805MeO     HA 4826   1.464   3.176   4.027
  805MeO     HB 4827   1.576   3.040   4.047
  805MeO     HC 4828   1.638   3.205   4.037
  805MeO      O 4829   1.571   3.125   3.859
  805MeO      H 4830   1.559   3.214   3.824
  806MeO      C 4831   4.346   2.380   2.963
  806MeO     HA 4832   4.312   2.472   2.916
  806MeO     HB 4833   4.386   2.404   3.061
  806MeO     HC 4834   4.261   2.314   2.975
  806MeO      O 4835   4.445   2.318   2.882
  806MeO      H 4836   4.404   2.301   2.796
  807MeO      C 4837   4.533   2.561   2.654
  807MeO     HA 4838   4.544   2.476   2.586
  807MeO     HB 4839   4.427   2.580   2.669
  807MeO     HC 4840   4.578   2.648   2.608
  807MeO      O 4841   4.595   2.532   2.778
  807MeO      H 4842   4.551   2.456   2.815
  808MeO      C 4843   3.324   4.275   3.812
  808MeO     HA 4844   3.351   4.379   3.833
  808MeO     HB 4845   3.222   4.258   3.846
  808MeO     HC 4846   3.329   4.260   3.704
  808MeO      O 4847   3.412   4.187   3.878
  808MeO      H 4848   3.500   4.205   3.843
  809MeO      C 4849   0.483   3.693   4.829
  809MeO     HA 4850   0.560   3.747   4.774
  809MeO     HB 4851   0.524   3.662   4.924
  809MeO     HC 4852   0.400   3.762   4.848
  809MeO      O 4853   0.439   3.581   4.755
  809MeO      H 4854   0.513   3.521   4.747
  810MeO      C 4855   2.587   1.853   3.588
  810MeO     HA 4856   2.511   1.929   3.568
  810MeO     HB 4857   2.669   1.899   3.643
  810MeO     HC 4858   2.626   1.818   3.492
  810MeO      O 4859   2.531   1.746   3.660
  810MeO      H 4860   2.471   1.699   3.601
  811MeO      C 4861   2.469   4.319   1.055
  811MeO     HA 4862   2.532   4.399   1.019
  811MeO     HB 4863   2.522   4.225   1.047
  811MeO     HC 4864   2.380   4.314   0.992
  811MeO      O 4865   2.432   4.343   1.190
  811MeO      H 4866   2.385   4.426   1.192
  812MeO      C 4867   4.894   1.905   2.848
  812MeO     HA 4868   4.821   1.913   2.767
  812MeO     HB 4869   0.068   1.898   2.804
  812MeO     HC 4870   4.889   1.997   2.907
  812MeO      O 4871   4.867   1.793   2.929
  812MeO      H 4872   4.780   1.807   2.969
  813MeO      C 4873   4.849   3.689   2.198
  813MeO     HA 4874   4.899   3.660   2.105
  813MeO     HB 4875   4.749   3.647   2.198
  813MeO     HC 4876   4.841   3.798   2.200
  813MeO      O 4877   4.922   3.644   2.310
  813MeO      H 4878   4.873   3.672   2.388
  814MeO      C 4879   3.255   4.213   2.155
  814MeO     HA 4880   3.309   4.239   2.064
  814MeO     HB 4881   3.199   4.121   2.136
  814MeO     HC 4882   3.184   4.293   2.178
  814MeO      O 4883   3.346   4.194   2.262
  814MeO      H 4884   3.406   4.124   2.234
  815MeO      C 4885   2.445   2.786   4.215
  815MeO     HA 4886   2.515   2.815   4.137
  815MeO     HB 4887   2.496   2.791   4.312
  815MeO     HC 4888   2.362   2.856   4.216
  815MeO      O 4889   2.397   2.655   4.191
  815MeO      H 4890   2.354   2.659   4.104
  816MeO      C 4891   1.961   4.719   0.663
  816MeO     HA 4892   1.882   4.794   0.654
  816MeO     HB 4893   1.918   4.621   0.644
  816MeO     HC 4894   1.999   4.721   0.765
  816MeO      O 4895   2.065   4.746   0.572
  816MeO      H 4896   2.134   4.681   0.588
  817MeO      C 4897   2.826   0.760   2.880
  817MeO     HA 4898   2.730   0.813   2.878
  817MeO     HB 4899   2.833   0.698   2.790
  817MeO     HC 4900   2.828   0.695   2.967
  817MeO      O 4901   2.933   0.852   2.884
  817MeO      H 4902   2.925   0.906   2.803
  818MeO      C 4903   4.417   0.402   1.812
  818MeO     HA 4904   4.377   0.430   1.910
  818MeO     HB 4905   4.336   0.359   1.753
  818MeO     HC 4906   4.494   0.327   1.826
  818MeO      O 4907   4.470   0.516   1.747
  818MeO      H 4908   4.395   0.576   1.733
  819MeO      C 4909   0.181   3.105   2.469
  819MeO     HA 4910   0.280   3.108   2.515
  819MeO     HB 4911   0.175   3.185   2.396
  819MeO     HC 4912   0.106   3.122   2.547
  819MeO      O 4913   0.160   2.980   2.407
  819MeO      H 4914   0.235   2.966   2.348
  820MeO      C 4915   4.864   4.864   0.983
  820MeO     HA 4916   4.792   4.902   1.056
  820MeO     HB 4917   4.897   0.022   0.922
  820MeO     HC 4918   0.024   4.824   1.037
  820MeO      O 4919   4.805   4.764   0.902
  820MeO      H 4920   4.726   4.804   0.863
  821MeO      C 4921   3.574   0.638   1.964
  821MeO     HA 4922   3.480   0.677   1.926
  821MeO     HB 4923   3.654   0.673   1.899
  821MeO     HC 4924   3.590   0.678   2.064
  821MeO      O 4925   3.571   0.497   1.967
  821MeO      H 4926   3.499   0.472   2.026
  822MeO      C 4927   3.844   2.520   0.414
  822MeO     HA 4928   3.943   2.533   0.370
  822MeO     HB 4929   3.771   2.563   0.346
  822MeO     HC 4930   3.840   2.574   0.508
  822MeO      O 4931   3.818   2.382   0.433
  822MeO      H 4932   3.833   2.339   0.349
  823MeO      C 4933   3.811   1.870   3.033
  823MeO     HA 4934   3.759   1.897   2.942
  823MeO     HB 4935   3.738   1.851   3.111
  823MeO     HC 4936   3.868   1.779   3.014
  823MeO      O 4937   3.898   1.974   3.072
  823MeO      H 4938   3.959   1.989   2.998
  824MeO      C 4939   4.469   4.037   1.541
  824MeO     HA 4940   4.456   4.085   1.444
  824MeO     HB 4941   4.433   4.104   1.618
  824MeO     HC 4942   4.576   4.020   1.558
  824MeO      O 4943   4.399   3.914   1.547
  824MeO      H 4944   4.414   3.879   1.635
  825MeO      C 4945   3.169   0.504   4.315
  825MeO     HA 4946   3.242   0.440   4.265
  825MeO     HB 4947   3.072   0.486   4.269
  825MeO     HC 4948   3.197   0.608   4.298
  825MeO      O 4949   3.165   0.475   4.453
  825MeO      H 4950   3.147   0.381   4.460
  826MeO      C 4951   0.095   3.536   3.842
  826MeO     HA 4952   0.032   3.461   3.794
  826MeO     HB 4953   0.198   3.502   3.838
  826MeO     HC 4954   0.065   3.543   3.947
  826MeO      O 4955   0.081   3.660   3.777
  826MeO      H 4956   0.106   3.647   3.685
  827MeO      C 4957   4.407   1.031   2.938
  827MeO     HA 4958   4.415   1.024   2.830
  827MeO     HB 4959   4.485   1.098   2.975
  827MeO     HC 4960   4.423   0.931   2.981
  827MeO      O 4961   4.280   1.080   2.975
  827MeO      H 4962   4.274   1.169   2.939
  828MeO      C 4963   3.163   0.623   3.857
  828MeO     HA 4964   3.067   0.587   3.819
  828MeO     HB 4965   3.183   0.721   3.814
  828MeO     HC 4966   3.241   0.554   3.824
  828MeO      O 4967   3.160   0.630   3.998
  828MeO      H 4968   3.083   0.681   4.023
  829MeO      C 4969   3.530   4.265   3.065
  829MeO     HA 4970   3.502   4.274   3.170
  829MeO     HB 4971   3.486   4.173   3.025
  829MeO     HC 4972   3.638   4.256   3.058
  829MeO      O 4973   3.486   4.377   2.992
  829MeO      H 4974   3.522   4.455   3.037
  830MeO      C 4975   4.429   0.276   3.250
  830MeO     HA 4976   4.476   0.338   3.327
  830MeO     HB 4977   4.483   0.291   3.156
  830MeO     HC 4978   4.326   0.310   3.236
  830MeO      O 4979   4.431   0.140   3.287
  830MeO      H 4980   4.389   0.092   3.215
  831MeO      C 4981   1.770   3.977   4.751
  831MeO     HA 4982   1.707   4.037   4.686
  831MeO     HB 4983   1.874   4.007   4.736
  831MeO     HC 4984   1.759   3.873   4.723
  831MeO      O 4985   1.734   3.997   4.886
  831MeO      H 4986   1.746   4.091   4.904
  832MeO      C 4987   2.194   1.234   0.251
  832MeO     HA 4988   2.143   1.200   0.161
  832MeO     HB 4989   2.197   1.151   0.322
  832MeO     HC 4990   2.296   1.261   0.225
  832MeO      O 4991   2.126   1.345   0.307
  832MeO      H 4992   2.124   1.414   0.241
  833MeO      C 4993   0.347   0.068   4.806
  833MeO     HA 4994   0.293   0.135   4.740
  833MeO     HB 4995   0.386   0.125   4.890
  833MeO     HC 4996   0.278   4.918   4.845
  833MeO      O 4997   0.453   0.005   4.737
  833MeO      H 4998   0.496   4.872   4.801
  834MeO      C 4999   0.637   0.194   2.981
  834MeO     HA 5000   0.643   0.169   3.086
  834MeO     HB 5001   0.605   0.105   2.926
  834MeO     HC 5002   0.563   0.272   2.967
  834MeO      O 5003   0.764   0.237   2.934
  834MeO      H 5004   0.824   0.162   2.943
  835MeO      C 5005   0.200   3.421   2.143
  835MeO     HA 5006   0.279   3.348   2.128
  835MeO     HB 5007   0.107   3.383   2.100
  835MeO     HC 5008   0.227   3.513   2.091
  835MeO      O 5009   0.183   3.448   2.281
  835MeO      H 5010   0.113   3.515   2.288
  836MeO      C 5011   2.607   3.480   2.991
  836MeO     HA 5012   2.640   3.573   2.946
  836MeO     HB 5013   2.567   3.501   3.090
  836MeO     HC 5014   2.694   3.414   3.002
  836MeO      O 5015   2.509   3.418   2.910
  836MeO      H 5016   2.485   3.335   2.953
  837MeO      C 5017   0.341   2.273   4.365
  837MeO     HA 5018   0.290   2.305   4.275
  837MeO     HB 5019   0.429   2.216   4.337
  837MeO     HC 5020   0.274   2.209   4.422
  837MeO      O 5021   0.377   2.386   4.442
  837MeO      H 5022   0.298   2.441   4.451
  838MeO      C 5023   1.424   1.362   3.476
  838MeO     HA 5024   1.505   1.299   3.513
  838MeO     HB 5025   1.465   1.433   3.404
  838MeO     HC 5026   1.383   1.418   3.560
  838MeO      O 5027   1.324   1.283   3.416
  838MeO      H 5028   1.255   1.344   3.385
  839MeO      C 5029   2.295   1.942   3.345
  839MeO     HA 5030   2.225   1.977   3.268
  839MeO     HB 5031   2.368   2.021   3.361
  839MeO     HC 5032   2.240   1.926   3.437
  839MeO      O 5033   2.358   1.824   3.302
  839MeO      H 5034   2.399   1.843   3.217
  840MeO      C 5035   2.816   1.441   1.328
  840MeO     HA 5036   2.757   1.502   1.259
  840MeO     HB 5037   2.787   1.337   1.314
  840MeO     HC 5038   2.791   1.470   1.430
  840MeO      O 5039   2.953   1.458   1.303
  840MeO      H 5040   2.969   1.427   1.212
  841MeO      C 5041   2.343   0.191   1.079
  841MeO     HA 5042   2.446   0.181   1.112
  841MeO     HB 5043   2.321   0.297   1.064
  841MeO     HC 5044   2.277   0.153   1.157
  841MeO      O 5045   2.322   0.119   0.959
  841MeO      H 5046   2.230   0.133   0.934
  842MeO      C 5047   4.029   1.188   3.550
  842MeO     HA 5048   4.047   1.277   3.490
  842MeO     HB 5049   4.042   1.214   3.655
  842MeO     HC 5050   4.102   1.112   3.523
  842MeO      O 5051   3.898   1.140   3.527
  842MeO      H 5052   3.838   1.214   3.543
  843MeO      C 5053   3.087   2.033   2.924
  843MeO     HA 5054   3.078   2.062   3.028
  843MeO     HB 5055   3.185   1.989   2.908
  843MeO     HC 5056   3.079   2.123   2.862
  843MeO      O 5057   2.985   1.941   2.889
  843MeO      H 5058   3.003   1.913   2.799
  844MeO      C 5059   0.089   3.043   0.894
  844MeO     HA 5060   0.169   2.969   0.900
  844MeO     HB 5061   0.005   3.008   0.955
  844MeO     HC 5062   0.126   3.136   0.936
  844MeO      O 5063   0.048   3.061   0.760
  844MeO      H 5064   0.124   3.100   0.714
  845MeO      C 5065   1.893   2.917   4.397
  845MeO     HA 5066   1.886   2.993   4.476
  845MeO     HB 5067   1.837   2.829   4.429
  845MeO     HC 5068   1.997   2.890   4.384
  845MeO      O 5069   1.838   2.968   4.277
  845MeO      H 5070   1.747   2.995   4.297
  846MeO      C 5071   1.412   2.934   4.779
  846MeO     HA 5072   1.332   2.887   4.836
  846MeO     HB 5073   1.417   2.886   4.681
  846MeO     HC 5074   1.506   2.916   4.831
  846MeO      O 5075   1.389   3.072   4.764
  846MeO      H 5076   1.458   3.105   4.705
  847MeO      C 5077   1.372   1.536   3.088
  847MeO     HA 5078   1.430   1.461   3.141
  847MeO     HB 5079   1.423   1.559   2.994
  847MeO     HC 5080   1.370   1.627   3.149
  847MeO      O 5081   1.241   1.490   3.063
  847MeO      H 5082   1.247   1.411   3.009
  848MeO      C 5083   1.233   3.296   2.433
  848MeO     HA 5084   1.308   3.220   2.412
  848MeO     HB 5085   1.247   3.377   2.362
  848MeO     HC 5086   1.249   3.334   2.533
  848MeO      O 5087   1.103   3.241   2.419
  848MeO      H 5088   1.098   3.206   2.329
  849MeO      C 5089   2.004   1.103   2.192
  849MeO     HA 5090   1.913   1.162   2.205
  849MeO     HB 5091   2.076   1.163   2.137
  849MeO     HC 5092   2.045   1.081   2.291
  849MeO      O 5093   1.975   0.984   2.122
  849MeO      H 5094   1.939   1.011   2.036
  850MeO      C 5095   4.230   3.630   3.992
  850MeO     HA 5096   4.314   3.613   3.925
  850MeO     HB 5097   4.212   3.539   4.048
  850MeO     HC 5098   4.257   3.709   4.062
  850MeO      O 5099   4.115   3.666   3.919
  850MeO      H 5100   4.044   3.676   3.984
  851MeO      C 5101   1.381   1.854   0.218
  851MeO     HA 5102   1.439   1.870   0.309
  851MeO     HB 5103   1.317   1.767   0.233
  851MeO     HC 5104   1.450   1.833   0.137
  851MeO      O 5105   1.303   1.968   0.189
  851MeO      H 5106   1.250   1.985   0.268
  852MeO      C 5107   3.804   4.696   2.063
  852MeO     HA 5108   3.858   4.604   2.041
  852MeO     HB 5109   3.710   4.671   2.111
  852MeO     HC 5110   3.782   4.747   1.969
  852MeO      O 5111   3.881   4.780   2.147
  852MeO      H 5112   3.829   4.860   2.161
  853MeO      C 5113   1.188   0.154   3.559
  853MeO     HA 5114   1.283   0.207   3.555
  853MeO     HB 5115   1.157   0.133   3.456
  853MeO     HC 5116   1.203   0.059   3.610
  853MeO      O 5117   1.090   0.232   3.625
  853MeO      H 5118   1.011   0.178   3.632
  854MeO      C 5119   2.910   1.668   3.551
  854MeO     HA 5120   2.804   1.644   3.553
  854MeO     HB 5121   2.929   1.743   3.629
  854MeO     HC 5122   2.967   1.579   3.575
  854MeO      O 5123   2.948   1.719   3.425
  854MeO      H 5124   2.908   1.807   3.418
  855MeO      C 5125   1.296   2.003   3.950
  855MeO     HA 5126   1.310   1.906   3.903
  855MeO     HB 5127   1.233   1.990   4.037
  855MeO     HC 5128   1.394   2.040   3.982
  855MeO      O 5129   1.236   2.093   3.858
  855MeO      H 5130   1.152   2.054   3.834
  856MeO      C 5131   4.305   0.685   4.317
  856MeO     HA 5132   4.347   0.752   4.242
  856MeO     HB 5133   4.312   0.583   4.280
  856MeO     HC 5134   4.200   0.710   4.332
  856MeO      O 5135   4.377   0.697   4.438
  856MeO      H 5136   4.468   0.673   4.418
  857MeO      C 5137   2.594   1.908   4.463
  857MeO     HA 5138   2.614   1.851   4.372
  857MeO     HB 5139   2.493   1.885   4.496
  857MeO     HC 5140   2.598   2.014   4.438
  857MeO      O 5141   2.689   1.877   4.562
  857MeO      H 5142   2.775   1.886   4.520
  858MeO      C 5143   3.565   3.860   3.457
  858MeO     HA 5144   3.655   3.888   3.402
  858MeO     HB 5145   3.530   3.946   3.513
  858MeO     HC 5146   3.591   3.780   3.526
  858MeO      O 5147   3.466   3.815   3.367
  858MeO      H 5148   3.500   3.735   3.325
  859MeO      C 5149   2.036   0.544   3.465
  859MeO     HA 5150   2.049   0.634   3.405
  859MeO     HB 5151   1.931   0.518   3.466
  859MeO     HC 5152   2.068   0.566   3.567
  859MeO      O 5153   2.113   0.438   3.411
  859MeO      H 5154   2.205   0.465   3.417
  860MeO      C 5155   0.524   0.459   3.285
  860MeO     HA 5156   0.527   0.392   3.199
  860MeO     HB 5157   0.592   0.542   3.266
  860MeO     HC 5158   0.560   0.404   3.372
  860MeO      O 5159   0.393   0.506   3.306
  860MeO      H 5160   0.368   0.556   3.227
  861MeO      C 5161   2.140   2.408   0.809
  861MeO     HA 5162   2.165   2.448   0.908
  861MeO     HB 5163   2.168   2.483   0.735
  861MeO     HC 5164   2.033   2.393   0.803
  861MeO      O 5165   2.209   2.287   0.785
  861MeO      H 5166   2.174   2.251   0.703
  862MeO      C 5167   1.502   4.755   4.191
  862MeO     HA 5168   1.402   4.780   4.224
  862MeO     HB 5169   1.523   4.652   4.219
  862MeO     HC 5170   1.507   4.764   4.083
  862MeO      O 5171   1.596   4.841   4.252
  862MeO      H 5172   1.570   0.006   4.232
  863MeO      C 5173   3.432   0.766   1.573
  863MeO     HA 5174   3.461   0.752   1.677
  863MeO     HB 5175   3.509   0.825   1.523
  863MeO     HC 5176   3.427   0.668   1.526
  863MeO      O 5177   3.307   0.830   1.565
  863MeO      H 5178   3.245   0.776   1.615
  864MeO      C 5179   2.018   2.762   0.186
  864MeO     HA 5180   1.918   2.721   0.198
  864MeO     HB 5181   2.069   2.759   0.282
  864MeO     HC 5182   2.009   2.866   0.156
  864MeO      O 5183   2.091   2.689   0.089
  864MeO      H 5184   2.181   2.722   0.095
  865MeO      C 5185   2.628   0.544   1.718
  865MeO     HA 5186   2.733   0.525   1.699
  865MeO     HB 5187   2.588   0.464   1.781
  865MeO     HC 5188   2.575   0.542   1.622
  865MeO      O 5189   2.610   0.669   1.780
  865MeO      H 5190   2.515   0.683   1.791
  866MeO      C 5191   2.287   2.724   3.167
  866MeO     HA 5192   2.185   2.688   3.175
  866MeO     HB 5193   2.294   2.820   3.219
  866MeO     HC 5194   2.311   2.741   3.062
  866MeO      O 5195   2.377   2.631   3.224
  866MeO      H 5196   2.464   2.674   3.227
  867MeO      C 5197   3.519   1.884   2.612
  867MeO     HA 5198   3.589   1.952   2.563
  867MeO     HB 5199   3.479   1.934   2.701
  867MeO     HC 5200   3.437   1.864   2.543
  867MeO      O 5201   3.584   1.764   2.648
  867MeO      H 5202   3.604   1.716   2.567
  868MeO      C 5203   1.972   3.275   4.302
  868MeO     HA 5204   2.036   3.364   4.298
  868MeO     HB 5205   1.961   3.245   4.406
  868MeO     HC 5206   1.874   3.301   4.263
  868MeO      O 5207   2.028   3.170   4.227
  868MeO      H 5208   1.968   3.096   4.234
  869MeO      C 5209   4.119   4.787   0.124
  869MeO     HA 5210   4.129   4.801   0.017
  869MeO     HB 5211   4.090   4.881   0.170
  869MeO     HC 5212   4.040   4.714   0.142
  869MeO      O 5213   4.240   4.740   0.180
  869MeO      H 5214   4.228   4.734   0.276
  870MeO      C 5215   4.669   1.556   0.655
  870MeO     HA 5216   4.571   1.514   0.632
  870MeO     HB 5217   4.736   1.533   0.572
  870MeO     HC 5218   4.708   1.509   0.745
  870MeO      O 5219   4.658   1.696   0.672
  870MeO      H 5220   4.624   1.732   0.590
  871MeO      C 5221   1.399   4.304   0.908
  871MeO     HA 5222   1.334   4.219   0.888
  871MeO     HB 5223   1.371   4.345   1.005
  871MeO     HC 5224   1.502   4.268   0.913
  871MeO      O 5225   1.384   4.402   0.807
  871MeO      H 5226   1.292   4.430   0.808
  872MeO      C 5227   1.546   3.605   3.185
  872MeO     HA 5228   1.545   3.628   3.079
  872MeO     HB 5229   1.449   3.629   3.227
  872MeO     HC 5230   1.564   3.498   3.196
  872MeO      O 5231   1.649   3.678   3.249
  872MeO      H 5232   1.731   3.656   3.206
  873MeO      C 5233   1.728   2.487   1.867
  873MeO     HA 5234   1.669   2.483   1.775
  873MeO     HB 5235   1.813   2.553   1.851
  873MeO     HC 5236   1.666   2.529   1.946
  873MeO      O 5237   1.773   2.357   1.902
  873MeO      H 5238   1.824   2.324   1.827
  874MeO      C 5239   0.954   4.256   0.606
  874MeO     HA 5240   0.873   4.310   0.656
  874MeO     HB 5241   0.913   4.166   0.560
  874MeO     HC 5242   0.996   4.319   0.529
  874MeO      O 5243   1.053   4.220   0.700
  874MeO      H 5244   1.086   4.303   0.738
  875MeO      C 5245   0.732   4.317   1.141
  875MeO     HA 5246   0.639   4.303   1.196
  875MeO     HB 5247   0.808   4.356   1.209
  875MeO     HC 5248   0.715   4.390   1.062
  875MeO      O 5249   0.776   4.194   1.085
  875MeO      H 5250   0.707   4.164   1.025
  876MeO      C 5251   3.114   4.878   0.977
  876MeO     HA 5252   3.009   4.897   0.951
  876MeO     HB 5253   3.119   4.788   1.038
  876MeO     HC 5254   3.169   4.860   0.885
  876MeO      O 5255   3.170   0.062   1.046
  876MeO      H 5256   3.263   0.040   1.061
  877MeO      C 5257   0.930   3.278   3.165
  877MeO     HA 5258   1.008   3.348   3.193
  877MeO     HB 5259   0.961   3.177   3.194
  877MeO     HC 5260   0.917   3.280   3.057
  877MeO      O 5261   0.808   3.311   3.229
  877MeO      H 5262   0.744   3.243   3.202
  878MeO      C 5263   3.066   3.932   3.957
  878MeO     HA 5264   3.118   4.010   3.900
  878MeO     HB 5265   3.023   3.861   3.887
  878MeO     HC 5266   3.140   3.880   4.018
  878MeO      O 5267   2.965   3.987   4.039
  878MeO      H 5268   2.926   3.914   4.088
  879MeO      C 5269   4.645   1.471   3.291
  879MeO     HA 5270   4.583   1.483   3.380
  879MeO     HB 5271   4.700   1.564   3.274
  879MeO     HC 5272   4.579   1.454   3.206
  879MeO      O 5273   4.734   1.363   3.307
  879MeO      H 5274   4.680   1.283   3.313
  880MeO      C 5275   2.298   0.966   1.084
  880MeO     HA 5276   2.271   0.882   1.021
  880MeO     HB 5277   2.252   1.056   1.043
  880MeO     HC 5278   2.406   0.979   1.082
  880MeO      O 5279   2.251   0.945   1.216
  880MeO      H 5280   2.155   0.946   1.209
  881MeO      C 5281   3.701   0.143   2.062
  881MeO     HA 5282   3.771   0.223   2.041
  881MeO     HB 5283   3.708   0.069   1.983
  881MeO     HC 5284   3.601   0.184   2.062
  881MeO      O 5285   3.731   0.084   2.188
  881MeO      H 5286   3.727   0.155   2.253
  882MeO      C 5287   2.412   2.103   0.404
  882MeO     HA 5288   2.492   2.105   0.330
  882MeO     HB 5289   2.453   2.134   0.500
  882MeO     HC 5290   2.377   2.000   0.414
  882MeO      O 5291   2.306   2.188   0.366
  882MeO      H 5292   2.239   2.181   0.434
  883MeO      C 5293   1.469   1.508   2.219
  883MeO     HA 5294   1.410   1.594   2.251
  883MeO     HB 5295   1.532   1.538   2.136
  883MeO     HC 5296   1.401   1.430   2.185
  883MeO      O 5297   1.546   1.460   2.328
  883MeO      H 5298   1.482   1.436   2.396
  884MeO      C 5299   1.869   3.295   1.628
  884MeO     HA 5300   1.889   3.395   1.669
  884MeO     HB 5301   1.767   3.267   1.653
  884MeO     HC 5302   1.937   3.225   1.675
  884MeO      O 5303   1.888   3.294   1.488
  884MeO      H 5304   1.880   3.202   1.460
  885MeO      C 5305   3.943   3.490   3.344
  885MeO     HA 5306   3.923   3.423   3.427
  885MeO     HB 5307   3.993   3.434   3.265
  885MeO     HC 5308   3.848   3.527   3.305
  885MeO      O 5309   4.024   3.597   3.388
  885MeO      H 5310   4.105   3.557   3.421
  886MeO      C 5311   3.057   3.444   4.779
  886MeO     HA 5312   2.984   3.369   4.808
  886MeO     HB 5313   3.154   3.395   4.767
  886MeO     HC 5314   3.027   3.486   4.682
  886MeO      O 5315   3.066   3.547   4.876
  886MeO      H 5316   3.133   3.609   4.846
  887MeO      C 5317   4.746   1.340   1.624
  887MeO     HA 5318   4.729   1.425   1.559
  887MeO     HB 5319   4.746   1.249   1.564
  887MeO     HC 5320   4.845   1.351   1.670
  887MeO      O 5321   4.646   1.333   1.724
  887MeO      H 5322   4.654   1.413   1.777
  888MeO      C 5323   0.300   4.780   2.837
  888MeO     HA 5324   0.404   4.813   2.848
  888MeO     HB 5325   0.244   4.813   2.924
  888MeO     HC 5326   0.259   4.827   2.748
  888MeO      O 5327   0.295   4.639   2.825
  888MeO      H 5328   0.352   4.617   2.750
  889MeO      C 5329   1.971   2.080   2.449
  889MeO     HA 5330   2.005   2.145   2.368
  889MeO     HB 5331   1.899   2.134   2.509
  889MeO     HC 5332   2.057   2.055   2.511
  889MeO      O 5333   1.912   1.963   2.396
  889MeO      H 5334   1.978   1.921   2.339
  890MeO      C 5335   4.366   4.482   1.817
  890MeO     HA 5336   4.287   4.407   1.824
  890MeO     HB 5337   4.433   4.470   1.902
  890MeO     HC 5338   4.320   4.581   1.823
  890MeO      O 5339   4.436   4.468   1.696
  890MeO      H 5340   4.370   4.477   1.625
  891MeO      C 5341   1.289   0.050   3.005
  891MeO     HA 5342   1.289   4.872   2.972
  891MeO     HB 5343   1.389   0.074   3.042
  891MeO     HC 5344   1.267   0.114   2.920
  891MeO      O 5345   1.192   0.068   3.107
  891MeO      H 5346   1.197   0.160   3.136
  892MeO      C 5347   2.327   4.909   3.233
  892MeO     HA 5348   2.255   4.833   3.206
  892MeO     HB 5349   2.344   0.048   3.148
  892MeO     HC 5350   2.422   4.859   3.258
  892MeO      O 5351   2.281   0.058   3.344
  892MeO      H 5352   2.194   0.093   3.321
  893MeO      C 5353   4.004   4.144   4.908
  893MeO     HA 5354   3.933   4.083   4.852
  893MeO     HB 5355   4.105   4.110   4.885
  893MeO     HC 5356   3.995   4.248   4.875
  893MeO      O 5357   3.980   4.134   0.121
  893MeO      H 5358   4.046   4.189   0.164
  894MeO      C 5359   0.001   0.410   3.754
  894MeO     HA 5360   4.839   0.433   3.816
  894MeO     HB 5361   4.895   0.347   3.671
  894MeO     HC 5362   0.073   0.355   3.814
  894MeO      O 5363   0.059   0.529   3.705
  894MeO      H 5364   0.135   0.503   3.651
  895MeO      C 5365   4.416   1.928   3.386
  895MeO     HA 5366   4.387   2.013   3.447
  895MeO     HB 5367   4.462   1.965   3.294
  895MeO     HC 5368   4.490   1.869   3.440
  895MeO      O 5369   4.304   1.848   3.356
  895MeO      H 5370   4.240   1.905   3.309
  896MeO      C 5371   2.902   3.710   3.086
  896MeO     HA 5372   2.876   3.673   2.986
  896MeO     HB 5373   2.993   3.661   3.118
  896MeO     HC 5374   2.920   3.817   3.078
  896MeO      O 5375   2.796   3.686   3.176
  896MeO      H 5376   2.721   3.737   3.144
  897MeO      C 5377   2.870   2.820   1.842
  897MeO     HA 5378   2.975   2.818   1.869
  897MeO     HB 5379   2.816   2.754   1.910
  897MeO     HC 5380   2.833   2.921   1.855
  897MeO      O 5381   2.853   2.777   1.708
  897MeO      H 5382   2.886   2.687   1.702
  898MeO      C 5383   4.003   3.546   0.245
  898MeO     HA 5384   3.987   3.644   0.292
  898MeO     HB 5385   3.912   3.487   0.260
  898MeO     HC 5386   4.086   3.496   0.295
  898MeO      O 5387   4.029   3.562   0.107
  898MeO      H 5388   3.955   3.614   0.071
  899MeO      C 5389   4.274   3.793   3.611
  899MeO     HA 5390   4.337   3.704   3.621
  899MeO     HB 5391   4.184   3.767   3.556
  899MeO     HC 5392   4.329   3.868   3.555
  899MeO      O 5393   4.241   3.843   3.740
  899MeO      H 5394   4.190   3.775   3.785
  900MeO      C 5395   1.362   2.978   1.118
  900MeO     HA 5396   1.436   3.019   1.050
  900MeO     HB 5397   1.372   2.870   1.119
  900MeO     HC 5398   1.382   3.016   1.219
  900MeO      O 5399   1.232   3.015   1.077
  900MeO      H 5400   1.219   2.978   0.989
  901MeO      C 5401   0.753   2.709   2.317
  901MeO     HA 5402   0.671   2.754   2.373
  901MeO     HB 5403   0.825   2.669   2.388
  901MeO     HC 5404   0.801   2.787   2.258
  901MeO      O 5405   0.704   2.606   2.233
  901MeO      H 5406   0.661   2.542   2.291
  902MeO      C 5407   2.922   0.820   4.197
  902MeO     HA 5408   2.820   0.852   4.219
  902MeO     HB 5409   2.950   0.744   4.270
  902MeO     HC 5410   2.988   0.906   4.209
  902MeO      O 5411   2.930   0.769   4.066
  902MeO      H 5412   2.906   0.841   4.006
  903MeO      C 5413   4.260   4.824   3.579
  903MeO     HA 5414   4.298   4.724   3.599
  903MeO     HB 5415   4.303   4.861   3.486
  903MeO     HC 5416   4.292   4.890   3.660
  903MeO      O 5417   4.119   4.824   3.570
  903MeO      H 5418   4.093   4.915   3.550
  904MeO      C 5419   3.641   1.843   0.800
  904MeO     HA 5420   3.558   1.774   0.786
  904MeO     HB 5421   3.724   1.788   0.844
  904MeO     HC 5422   3.672   1.882   0.703
  904MeO      O 5423   3.602   1.948   0.887
  904MeO      H 5424   3.580   1.907   0.971
  905MeO      C 5425   3.293   1.679   4.324
  905MeO     HA 5426   3.222   1.746   4.275
  905MeO     HB 5427   3.344   1.736   4.402
  905MeO     HC 5428   3.367   1.647   4.251
  905MeO      O 5429   3.226   1.569   4.380
  905MeO      H 5430   3.161   1.604   4.442
  906MeO      C 5431   1.479   4.579   1.203
  906MeO     HA 5432   1.395   4.592   1.134
  906MeO     HB 5433   1.527   4.484   1.182
  906MeO     HC 5434   1.440   4.577   1.305
  906MeO      O 5435   1.570   4.686   1.188
  906MeO      H 5436   1.521   4.767   1.207
  907MeO      C 5437   1.042   4.447   2.142
  907MeO     HA 5438   0.977   4.483   2.221
  907MeO     HB 5439   1.007   4.349   2.109
  907MeO     HC 5440   1.036   4.516   2.058
  907MeO      O 5441   1.176   4.437   2.189
  907MeO      H 5442   1.228   4.404   2.114
  908MeO      C 5443   0.859   2.191   0.750
  908MeO     HA 5444   0.811   2.118   0.685
  908MeO     HB 5445   0.881   2.281   0.692
  908MeO     HC 5446   0.788   2.218   0.829
  908MeO      O 5447   0.977   2.136   0.805
  908MeO      H 5448   0.950   2.057   0.854
  909MeO      C 5449   0.664   1.716   2.960
  909MeO     HA 5450   0.712   1.635   3.016
  909MeO     HB 5451   0.557   1.697   2.958
  909MeO     HC 5452   0.702   1.714   2.858
  909MeO      O 5453   0.692   1.840   3.021
  909MeO      H 5454   0.787   1.853   3.017
  910MeO      C 5455   0.251   3.538   4.275
  910MeO     HA 5456   0.356   3.521   4.299
  910MeO     HB 5457   0.229   3.644   4.290
  910MeO     HC 5458   0.234   3.513   4.170
  910MeO      O 5459   0.169   3.459   4.359
  910MeO      H 5460   0.186   3.491   4.449
  911MeO      C 5461   3.756   0.835   3.476
  911MeO     HA 5462   3.782   0.817   3.580
  911MeO     HB 5463   3.668   0.899   3.472
  911MeO     HC 5464   3.731   0.739   3.429
  911MeO      O 5465   3.863   0.897   3.408
  911MeO      H 5466   3.877   0.982   3.452
  912MeO      C 5467   2.505   3.484   3.936
  912MeO     HA 5468   2.596   3.438   3.897
  912MeO     HB 5469   2.501   3.587   3.901
  912MeO     HC 5470   2.420   3.430   3.896
  912MeO      O 5471   2.505   3.479   4.077
  912MeO      H 5472   2.512   3.385   4.101
  913MeO      C 5473   1.638   2.654   0.096
  913MeO     HA 5474   1.622   2.546   0.098
  913MeO     HB 5475   1.561   2.699   0.034
  913MeO     HC 5476   1.735   2.672   0.049
  913MeO      O 5477   1.635   2.709   0.226
  913MeO      H 5478   1.652   2.803   0.215
  914MeO      C 5479   1.811   1.028   4.260
  914MeO     HA 5480   1.900   1.048   4.320
  914MeO     HB 5481   1.816   0.926   4.223
  914MeO     HC 5482   1.724   1.037   4.324
  914MeO      O 5483   1.803   1.120   4.153
  914MeO      H 5484   1.794   1.208   4.192
  915MeO      C 5485   2.350   0.846   1.876
  915MeO     HA 5486   2.442   0.898   1.849
  915MeO     HB 5487   2.350   0.830   1.984
  915MeO     HC 5488   2.265   0.909   1.850
  915MeO      O 5489   2.342   0.722   1.808
  915MeO      H 5490   2.257   0.683   1.833
  916MeO      C 5491   1.439   3.850   4.607
  916MeO     HA 5492   1.428   3.957   4.618
  916MeO     HB 5493   1.505   3.830   4.522
  916MeO     HC 5494   1.487   3.811   4.697
  916MeO      O 5495   1.313   3.789   4.587
  916MeO      H 5496   1.262   3.805   4.667
  917MeO      C 5497   3.864   0.657   1.577
  917MeO     HA 5498   3.930   0.710   1.509
  917MeO     HB 5499   3.777   0.719   1.598
  917MeO     HC 5500   3.917   0.639   1.671
  917MeO      O 5501   3.823   0.534   1.521
  917MeO      H 5502   3.764   0.493   1.586
  918MeO      C 5503   3.304   4.061   1.792
  918MeO     HA 5504   3.203   4.024   1.805
  918MeO     HB 5505   3.361   3.987   1.735
  918MeO     HC 5506   3.350   4.072   1.890
  918MeO      O 5507   3.304   4.185   1.724
  918MeO      H 5508   3.275   4.167   1.634
  919MeO      C 5509   4.173   1.807   2.208
  919MeO     HA 5510   4.187   1.887   2.135
  919MeO     HB 5511   4.073   1.767   2.196
  919MeO     HC 5512   4.180   1.851   2.308
  919MeO      O 5513   4.270   1.706   2.189
  919MeO      H 5514   4.246   1.664   2.105
  920MeO      C 5515   0.904   4.843   2.451
  920MeO     HA 5516   0.828   4.773   2.417
  920MeO     HB 5517   0.932   4.908   2.367
  920MeO     HC 5518   0.993   4.787   2.482
  920MeO      O 5519   0.855   4.921   2.557
  920MeO      H 5520   0.780   0.046   2.525
  921MeO      C 5521   0.060   1.975   2.397
  921MeO     HA 5522   0.012   1.914   2.321
  921MeO     HB 5523   0.119   2.053   2.348
  921MeO     HC 5524   0.128   1.912   2.455
  921MeO      O 5525   4.888   2.034   2.481
  921MeO      H 5526   4.831   2.087   2.424
  922MeO      C 5527   2.759   2.134   1.765
  922MeO     HA 5528   2.669   2.170   1.716
  922MeO     HB 5529   2.831   2.105   1.689
  922MeO     HC 5530   2.802   2.217   1.823
  922MeO      O 5531   2.731   2.025   1.850
  922MeO      H 5532   2.815   1.997   1.888
  923MeO      C 5533   1.029   2.230   4.113
  923MeO     HA 5534   1.037   2.153   4.190
  923MeO     HB 5535   1.021   2.181   4.016
  923MeO     HC 5536   1.120   2.290   4.114
  923MeO      O 5537   0.915   2.310   4.137
  923MeO      H 5538   0.838   2.253   4.137
  924MeO      C 5539   1.804   3.731   1.682
  924MeO     HA 5540   1.746   3.793   1.751
  924MeO     HB 5541   1.820   3.633   1.728
  924MeO     HC 5542   1.902   3.778   1.668
  924MeO      O 5543   1.738   3.718   1.558
  924MeO      H 5544   1.797   3.664   1.502
  925MeO      C 5545   2.440   1.016   3.203
  925MeO     HA 5546   2.517   0.975   3.137
  925MeO     HB 5547   2.483   1.025   3.303
  925MeO     HC 5548   2.357   0.946   3.207
  925MeO      O 5549   2.397   1.142   3.156
  925MeO      H 5550   2.357   1.127   3.070
  926MeO      C 5551   4.345   0.551   2.327
  926MeO     HA 5552   4.400   0.543   2.234
  926MeO     HB 5553   4.403   0.610   2.398
  926MeO     HC 5554   4.251   0.603   2.307
  926MeO      O 5555   4.319   0.422   2.380
  926MeO      H 5556   4.268   0.374   2.314
  927MeO      C 5557   2.061   0.923   3.043
  927MeO     HA 5558   2.132   0.878   2.974
  927MeO     HB 5559   2.114   0.950   3.135
  927MeO     HC 5560   2.022   1.015   2.999
  927MeO      O 5561   1.956   0.834   3.072
  927MeO      H 5562   1.896   0.882   3.131
  928MeO      C 5563   3.513   2.778   0.945
  928MeO     HA 5564   3.482   2.880   0.968
  928MeO     HB 5565   3.572   2.780   0.853
  928MeO     HC 5566   3.424   2.718   0.927
  928MeO      O 5567   3.589   2.723   1.050
  928MeO      H 5568   3.610   2.633   1.025
  929MeO      C 5569   0.894   0.884   2.839
  929MeO     HA 5570   0.828   0.939   2.905
  929MeO     HB 5571   0.919   0.789   2.886
  929MeO     HC 5572   0.985   0.941   2.825
  929MeO      O 5573   0.830   0.860   2.715
  929MeO      H 5574   0.759   0.798   2.733
  930MeO      C 5575   2.103   1.375   2.449
  930MeO     HA 5576   2.142   1.362   2.348
  930MeO     HB 5577   2.164   1.317   2.518
  930MeO     HC 5578   2.110   1.480   2.477
  930MeO      O 5579   1.968   1.331   2.456
  930MeO      H 5580   1.920   1.374   2.384
  931MeO      C 5581   2.636   1.136   4.142
  931MeO     HA 5582   2.656   1.178   4.240
  931MeO     HB 5583   2.717   1.068   4.116
  931MeO     HC 5584   2.634   1.217   4.069
  931MeO      O 5585   2.512   1.068   4.141
  931MeO      H 5586   2.503   1.031   4.052
  932MeO      C 5587   3.516   1.831   1.250
  932MeO     HA 5588   3.542   1.752   1.321
  932MeO     HB 5589   3.408   1.846   1.254
  932MeO     HC 5590   3.565   1.923   1.281
  932MeO      O 5591   3.556   1.794   1.119
  932MeO      H 5592   3.508   1.712   1.097
  933MeO      C 5593   2.096   0.591   0.647
  933MeO     HA 5594   2.037   0.517   0.593
  933MeO     HB 5595   2.186   0.542   0.685
  933MeO     HC 5596   2.126   0.669   0.577
  933MeO      O 5597   2.022   0.646   0.755
  933MeO      H 5598   2.012   0.575   0.819
  934MeO      C 5599   3.420   2.802   2.595
  934MeO     HA 5600   3.440   2.810   2.701
  934MeO     HB 5601   3.414   2.902   2.553
  934MeO     HC 5602   3.503   2.750   2.547
  934MeO      O 5603   3.299   2.732   2.572
  934MeO      H 5604   3.283   2.732   2.478
  935MeO      C 5605   4.305   1.502   1.908
  935MeO     HA 5606   4.383   1.543   1.845
  935MeO     HB 5607   4.350   1.462   1.999
  935MeO     HC 5608   4.257   1.420   1.855
  935MeO      O 5609   4.210   1.603   1.939
  935MeO      H 5610   4.171   1.629   1.855
  936MeO      C 5611   0.058   0.488   0.427
  936MeO     HA 5612   4.878   0.476   0.403
  936MeO     HB 5613   0.103   0.389   0.439
  936MeO     HC 5614   0.106   0.539   0.344
  936MeO      O 5615   0.072   0.564   0.546
  936MeO      H 5616   0.031   0.649   0.529
  937MeO      C 5617   1.712   1.812   1.210
  937MeO     HA 5618   1.750   1.900   1.262
  937MeO     HB 5619   1.796   1.754   1.173
  937MeO     HC 5620   1.656   1.752   1.282
  937MeO      O 5621   1.628   1.851   1.103
  937MeO      H 5622   1.554   1.898   1.142
  938MeO      C 5623   1.621   2.858   3.387
  938MeO     HA 5624   1.689   2.773   3.397
  938MeO     HB 5625   1.595   2.870   3.282
  938MeO     HC 5626   1.530   2.837   3.443
  938MeO      O 5627   1.683   2.975   3.436
  938MeO      H 5628   1.696   2.961   3.531
  939MeO      C 5629   4.060   3.670   2.620
  939MeO     HA 5630   3.954   3.645   2.616
  939MeO     HB 5631   4.103   3.628   2.711
  939MeO     HC 5632   4.109   3.623   2.534
  939MeO      O 5633   4.078   3.810   2.617
  939MeO      H 5634   4.034   3.845   2.696
  940MeO      C 5635   4.372   3.486   4.690
  940MeO     HA 5636   4.264   3.485   4.676
  940MeO     HB 5637   4.397   3.410   4.764
  940MeO     HC 5638   4.420   3.459   4.595
  940MeO      O 5639   4.414   3.613   4.734
  940MeO      H 5640   4.370   3.628   4.819
  941MeO      C 5641   4.485   4.784   4.488
  941MeO     HA 5642   4.516   4.878   4.441
  941MeO     HB 5643   4.376   4.779   4.484
  941MeO     HC 5644   4.516   4.785   4.592
  941MeO      O 5645   4.540   4.674   4.419
  941MeO      H 5646   4.515   4.683   4.326
  942MeO      C 5647   0.146   3.213   4.616
  942MeO     HA 5648   0.063   3.214   4.545
  942MeO     HB 5649   0.118   3.274   4.702
  942MeO     HC 5650   0.233   3.258   4.568
  942MeO      O 5651   0.173   3.081   4.657
  942MeO      H 5652   0.094   3.048   4.699
  943MeO      C 5653   1.081   0.691   2.551
  943MeO     HA 5654   1.005   0.614   2.542
  943MeO     HB 5655   1.121   0.689   2.653
  943MeO     HC 5656   1.163   0.670   2.482
  943MeO      O 5657   1.025   0.818   2.524
  943MeO      H 5658   0.957   0.832   2.591
  944MeO      C 5659   4.338   0.881   1.994
  944MeO     HA 5660   4.355   0.806   2.071
  944MeO     HB 5661   4.344   0.979   2.040
  944MeO     HC 5662   4.417   0.873   1.919
  944MeO      O 5663   4.212   0.862   1.934
  944MeO      H 5664   4.146   0.874   2.004
  945MeO      C 5665   3.765   4.804   1.594
  945MeO     HA 5666   3.873   4.790   1.588
  945MeO     HB 5667   3.722   4.779   1.497
  945MeO     HC 5668   3.744   4.909   1.614
  945MeO      O 5669   3.709   4.721   1.694
  945MeO      H 5670   3.733   4.631   1.672
  946MeO      C 5671   3.708   3.910   4.472
  946MeO     HA 5672   3.749   3.933   4.374
  946MeO     HB 5673   3.721   3.997   4.536
  946MeO     HC 5674   3.764   3.827   4.515
  946MeO      O 5675   3.571   3.877   4.461
  946MeO      H 5676   3.527   3.954   4.422
  947MeO      C 5677   3.928   1.502   2.251
  947MeO     HA 5678   3.938   1.566   2.163
  947MeO     HB 5679   4.003   1.423   2.244
  947MeO     HC 5680   3.949   1.562   2.340
  947MeO      O 5681   3.798   1.446   2.256
  947MeO      H 5682   3.787   1.399   2.173
  948MeO      C 5683   4.566   3.808   3.852
  948MeO     HA 5684   4.536   3.706   3.828
  948MeO     HB 5685   4.647   3.804   3.926
  948MeO     HC 5686   4.604   3.854   3.761
  948MeO      O 5687   4.457   3.881   3.902
  948MeO      H 5688   4.387   3.877   3.836
  949MeO      C 5689   0.229   0.802   0.279
  949MeO     HA 5690   0.297   0.885   0.261
  949MeO     HB 5691   0.247   0.764   0.380
  949MeO     HC 5692   0.251   0.723   0.208
  949MeO      O 5693   0.095   0.845   0.265
  949MeO      H 5694   0.086   0.879   0.175
  950MeO      C 5695   0.157   2.729   4.741
  950MeO     HA 5696   0.216   2.806   4.691
  950MeO     HB 5697   0.079   2.696   4.672
  950MeO     HC 5698   0.222   2.645   4.765
  950MeO      O 5699   0.098   2.782   4.858
  950MeO      H 5700   0.040   2.853   4.830
  951MeO      C 5701   2.299   1.178   3.710
  951MeO     HA 5702   2.312   1.095   3.640
  951MeO     HB 5703   2.393   1.195   3.763
  951MeO     HC 5704   2.276   1.268   3.652
  951MeO      O 5705   2.195   1.151   3.801
  951MeO      H 5706   2.194   1.225   3.864
  952MeO      C 5707   1.341   3.794   3.514
  952MeO     HA 5708   1.395   3.758   3.426
  952MeO     HB 5709   1.372   3.896   3.534
  952MeO     HC 5710   1.369   3.732   3.599
  952MeO      O 5711   1.202   3.788   3.492
  952MeO      H 5712   1.181   3.696   3.474
  953MeO      C 5713   4.423   4.188   2.047
  953MeO     HA 5714   4.413   4.080   2.060
  953MeO     HB 5715   4.441   4.208   1.941
  953MeO     HC 5716   4.510   4.222   2.103
  953MeO      O 5717   4.306   4.254   2.091
  953MeO      H 5718   4.294   4.230   2.183
  954MeO      C 5719   1.797   0.040   1.107
  954MeO     HA 5720   1.844   0.131   1.143
  954MeO     HB 5721   1.692   0.059   1.089
  954MeO     HC 5722   1.805   4.889   1.185
  954MeO      O 5723   1.860   4.920   0.989
  954MeO      H 5724   1.815   4.839   0.964
  955MeO      C 5725   1.702   2.790   2.584
  955MeO     HA 5726   1.776   2.758   2.511
  955MeO     HB 5727   1.618   2.836   2.531
  955MeO     HC 5728   1.747   2.866   2.648
  955MeO      O 5729   1.657   2.681   2.662
  955MeO      H 5730   1.597   2.718   2.728
  956MeO      C 5731   3.530   1.472   4.074
  956MeO     HA 5732   3.538   1.392   4.000
  956MeO     HB 5733   3.452   1.541   4.043
  956MeO     HC 5734   3.501   1.427   4.169
  956MeO      O 5735   3.654   1.538   4.088
  956MeO      H 5736   3.718   1.471   4.118
  957MeO      C 5737   4.536   2.815   2.293
  957MeO     HA 5738   4.611   2.797   2.216
  957MeO     HB 5739   4.466   2.889   2.256
  957MeO     HC 5740   4.586   2.857   2.381
  957MeO      O 5741   4.468   2.696   2.326
  957MeO      H 5742   4.396   2.721   2.385
  958MeO      C 5743   3.533   2.875   3.458
  958MeO     HA 5744   3.521   2.904   3.563
  958MeO     HB 5745   3.511   2.962   3.396
  958MeO     HC 5746   3.637   2.846   3.443
  958MeO      O 5747   3.447   2.768   3.427
  958MeO      H 5748   3.473   2.695   3.486
  959MeO      C 5749   2.538   3.125   1.855
  959MeO     HA 5750   2.647   3.121   1.851
  959MeO     HB 5751   2.500   3.023   1.866
  959MeO     HC 5752   2.502   3.165   1.761
  959MeO      O 5753   2.496   3.206   1.962
  959MeO      H 5754   2.526   3.296   1.942
  960MeO      C 5755   0.030   4.513   3.388
  960MeO     HA 5756   0.119   4.498   3.449
  960MeO     HB 5757   0.061   4.528   3.285
  960MeO     HC 5758   4.894   4.422   3.393
  960MeO      O 5759   4.882   4.624   3.434
  960MeO      H 5760   4.801   4.628   3.381
  961MeO      C 5761   0.575   0.947   0.594
  961MeO     HA 5762   0.537   0.882   0.516
  961MeO     HB 5763   0.514   0.933   0.684
  961MeO     HC 5764   0.677   0.918   0.617
  961MeO      O 5765   0.571   1.082   0.554
  961MeO      H 5766   0.605   1.134   0.628
  962MeO      C 5767   1.418   1.046   0.505
  962MeO     HA 5768   1.365   1.069   0.597
  962MeO     HB 5769   1.346   1.011   0.431
  962MeO     HC 5770   1.465   1.138   0.468
  962MeO      O 5771   1.517   0.948   0.528
  962MeO      H 5772   1.572   0.979   0.601
  963MeO      C 5773   3.991   1.620   0.103
  963MeO     HA 5774   4.055   1.702   0.136
  963MeO     HB 5775   3.955   1.567   0.190
  963MeO     HC 5776   3.905   1.662   0.050
  963MeO      O 5777   4.064   1.533   0.018
  963MeO      H 5778   4.139   1.501   0.070
  964MeO      C 5779   3.873   1.699   1.214
  964MeO     HA 5780   3.829   1.723   1.311
  964MeO     HB 5781   3.838   1.600   1.185
  964MeO     HC 5782   3.981   1.697   1.224
  964MeO      O 5783   3.833   1.795   1.118
  964MeO      H 5784   3.737   1.796   1.118
  965MeO      C 5785   4.020   3.456   2.010
  965MeO     HA 5786   3.982   3.520   1.931
  965MeO     HB 5787   4.126   3.437   1.990
  965MeO     HC 5788   3.967   3.361   2.007
  965MeO      O 5789   4.004   3.518   2.135
  965MeO      H 5790   4.051   3.602   2.131
  966MeO      C 5791   3.137   1.978   3.696
  966MeO     HA 5792   3.088   1.926   3.613
  966MeO     HB 5793   3.080   2.068   3.719
  966MeO     HC 5794   3.237   2.008   3.663
  966MeO      O 5795   3.145   1.894   3.809
  966MeO      H 5796   3.054   1.875   3.835
  967MeO      C 5797   2.788   3.103   4.322
  967MeO     HA 5798   2.802   3.059   4.421
  967MeO     HB 5799   2.754   3.206   4.334
  967MeO     HC 5800   2.885   3.104   4.272
  967MeO      O 5801   2.695   3.027   4.247
  967MeO      H 5802   2.735   2.940   4.235
  968MeO      C 5803   1.109   4.140   4.545
  968MeO     HA 5804   1.186   4.068   4.574
  968MeO     HB 5805   1.099   4.137   4.437
  968MeO     HC 5806   1.141   4.240   4.575
  968MeO      O 5807   0.986   4.106   4.607
  968MeO      H 5808   0.964   4.016   4.578
  969MeO      C 5809   1.830   1.146   0.175
  969MeO     HA 5810   1.909   1.120   0.246
  969MeO     HB 5811   1.737   1.160   0.230
  969MeO     HC 5812   1.856   1.240   0.127
  969MeO      O 5813   1.814   1.044   0.079
  969MeO      H 5814   1.740   1.070   0.023
  970MeO      C 5815   1.888   0.440   1.013
  970MeO     HA 5816   1.912   0.394   1.109
  970MeO     HB 5817   1.861   0.544   1.031
  970MeO     HC 5818   1.803   0.388   0.970
  970MeO      O 5819   1.999   0.432   0.926
  970MeO      H 5820   2.021   0.339   0.916
  971MeO      C 5821   1.107   1.689   3.611
  971MeO     HA 5822   1.176   1.630   3.549
  971MeO     HB 5823   1.082   1.632   3.700
  971MeO     HC 5824   1.016   1.706   3.554
  971MeO      O 5825   1.167   1.813   3.646
  971MeO      H 5826   1.103   1.861   3.699
  972MeO      C 5827   4.069   0.098   4.520
  972MeO     HA 5828   4.077   0.179   4.593
  972MeO     HB 5829   4.005   0.130   4.439
  972MeO     HC 5830   4.023   0.012   4.569
  972MeO      O 5831   4.197   0.062   4.471
  972MeO      H 5832   4.184   4.915   4.409
  973MeO      C 5833   3.270   3.764   2.150
  973MeO     HA 5834   3.349   3.716   2.208
  973MeO     HB 5835   3.203   3.686   2.113
  973MeO     HC 5836   3.214   3.830   2.215
  973MeO      O 5837   3.327   3.837   2.043
  973MeO      H 5838   3.390   3.898   2.081
  974MeO      C 5839   0.862   0.174   3.342
  974MeO     HA 5840   0.932   0.091   3.344
  974MeO     HB 5841   0.914   0.264   3.376
  974MeO     HC 5842   0.831   0.190   3.239
  974MeO      O 5843   0.751   0.147   3.424
  974MeO      H 5844   0.785   0.132   3.513
  975MeO      C 5845   0.402   4.735   0.265
  975MeO     HA 5846   0.409   4.642   0.208
  975MeO     HB 5847   0.385   4.817   0.195
  975MeO     HC 5848   0.496   4.752   0.316
  975MeO      O 5849   0.296   4.728   0.358
  975MeO      H 5850   0.297   4.812   0.406
  976MeO      C 5851   2.907   2.071   0.792
  976MeO     HA 5852   2.932   1.986   0.857
  976MeO     HB 5853   2.813   2.114   0.825
  976MeO     HC 5854   2.985   2.146   0.804
  976MeO      O 5855   2.899   2.029   0.657
  976MeO      H 5856   2.985   1.991   0.634
  977MeO      C 5857   0.655   4.488   0.549
  977MeO     HA 5858   0.754   4.509   0.508
  977MeO     HB 5859   0.657   4.503   0.657
  977MeO     HC 5860   0.583   4.557   0.505
  977MeO      O 5861   0.617   4.355   0.519
  977MeO      H 5862   0.528   4.342   0.554
  978MeO      C 5863   0.148   4.635   0.700
  978MeO     HA 5864   0.227   4.645   0.626
  978MeO     HB 5865   0.089   4.546   0.678
  978MeO     HC 5866   0.194   4.623   0.798
  978MeO      O 5867   0.065   4.750   0.699
  978MeO      H 5868   0.005   4.743   0.774
  979MeO      C 5869   1.756   2.548   0.524
  979MeO     HA 5870   1.815   2.534   0.614
  979MeO     HB 5871   1.653   2.567   0.553
  979MeO     HC 5872   1.759   2.456   0.466
  979MeO      O 5873   1.807   2.655   0.447
  979MeO      H 5874   1.748   2.667   0.372
  980MeO      C 5875   0.877   0.568   4.063
  980MeO     HA 5876   0.801   0.591   4.138
  980MeO     HB 5877   0.954   0.506   4.109
  980MeO     HC 5878   0.923   0.661   4.031
  980MeO      O 5879   0.820   0.501   3.953
  980MeO      H 5880   0.892   0.483   3.891
  981MeO      C 5881   2.540   4.765   0.552
  981MeO     HA 5882   2.638   4.811   0.561
  981MeO     HB 5883   2.537   4.705   0.461
  981MeO     HC 5884   2.465   4.845   0.544
  981MeO      O 5885   2.513   4.685   0.666
  981MeO      H 5886   2.514   4.745   0.742
  982MeO      C 5887   3.514   2.561   0.640
  982MeO     HA 5888   3.443   2.489   0.597
  982MeO     HB 5889   3.613   2.537   0.603
  982MeO     HC 5890   3.513   2.549   0.748
  982MeO      O 5891   3.477   2.692   0.604
  982MeO      H 5892   3.389   2.707   0.640
  983MeO      C 5893   4.480   2.807   1.402
  983MeO     HA 5894   4.442   2.816   1.301
  983MeO     HB 5895   4.401   2.837   1.472
  983MeO     HC 5896   4.506   2.703   1.422
  983MeO      O 5897   4.594   2.889   1.420
  983MeO      H 5898   4.619   2.883   1.513
  984MeO      C 5899   0.433   4.458   0.969
  984MeO     HA 5900   0.331   4.466   0.930
  984MeO     HB 5901   0.446   4.359   1.011
  984MeO     HC 5902   0.503   4.471   0.887
  984MeO      O 5903   0.453   4.557   1.069
  984MeO      H 5904   0.383   4.545   1.134
  985MeO      C 5905   1.356   3.789   0.889
  985MeO     HA 5906   1.405   3.763   0.796
  985MeO     HB 5907   1.408   3.875   0.932
  985MeO     HC 5908   1.253   3.819   0.867
  985MeO      O 5909   1.359   3.680   0.978
  985MeO      H 5910   1.450   3.653   0.988
  986MeO      C 5911   1.824   0.236   2.018
  986MeO     HA 5912   1.730   0.185   2.039
  986MeO     HB 5913   1.899   0.200   2.088
  986MeO     HC 5914   1.811   0.343   2.033
  986MeO      O 5915   1.866   0.211   1.885
  986MeO      H 5916   1.949   0.258   1.873
  987MeO      C 5917   2.405   2.796   0.241
  987MeO     HA 5918   2.343   2.815   0.329
  987MeO     HB 5919   2.441   2.694   0.245
  987MeO     HC 5920   2.491   2.864   0.244
  987MeO      O 5921   2.330   2.818   0.123
  987MeO      H 5922   2.298   2.908   0.125
  988MeO      C 5923   2.942   0.119   2.294
  988MeO     HA 5924   3.007   0.146   2.377
  988MeO     HB 5925   2.916   0.013   2.304
  988MeO     HC 5926   2.850   0.178   2.301
  988MeO      O 5927   3.007   0.143   2.171
  988MeO      H 5928   3.086   0.087   2.171
  989MeO      C 5929   0.447   1.150   4.526
  989MeO     HA 5930   0.435   1.050   4.484
  989MeO     HB 5931   0.539   1.153   4.583
  989MeO     HC 5932   0.454   1.221   4.443
  989MeO      O 5933   0.337   1.182   4.608
  989MeO      H 5934   0.333   1.116   4.678
  990MeO      C 5935   4.847   1.001   3.147
  990MeO     HA 5936   4.816   0.915   3.207
  990MeO     HB 5937   4.898   1.072   3.212
  990MeO     HC 5938   4.917   0.967   3.071
  990MeO      O 5939   4.735   1.061   3.087
  990MeO      H 5940   4.678   1.090   3.159
  991MeO      C 5941   4.644   2.182   3.126
  991MeO     HA 5942   4.583   2.246   3.190
  991MeO     HB 5943   4.719   2.244   3.077
  991MeO     HC 5944   4.695   2.109   3.189
  991MeO      O 5945   4.563   2.117   3.030
  991MeO      H 5946   4.523   2.187   2.978
  992MeO      C 5947   1.891   1.426   0.526
  992MeO     HA 5948   1.824   1.392   0.447
  992MeO     HB 5949   1.833   1.443   0.617
  992MeO     HC 5950   1.935   1.521   0.495
  992MeO      O 5951   1.993   1.330   0.548
  992MeO      H 5952   2.045   1.328   0.468
  993MeO      C 5953   0.046   4.217   0.015
  993MeO     HA 5954   0.121   4.217   0.095
  993MeO     HB 5955   0.098   4.217   4.845
  993MeO     HC 5956   4.912   4.126   0.022
  993MeO      O 5957   4.889   4.331   0.024
  993MeO      H 5958   4.827   4.326   4.877
  994MeO      C 5959   4.504   2.373   1.955
  994MeO     HA 5960   4.406   2.369   1.908
  994MeO     HB 5961   4.538   2.476   1.958
  994MeO     HC 5962   4.495   2.336   2.058
  994MeO      O 5963   4.595   2.292   1.884
  994MeO      H 5964   4.558   2.203   1.883
  995MeO      C 5965   0.770   2.240   1.126
  995MeO     HA 5966   0.866   2.189   1.124
  995MeO     HB 5967   0.703   2.189   1.058
  995MeO     HC 5968   0.730   2.233   1.227
  995MeO      O 5969   0.786   2.376   1.091
  995MeO      H 5970   0.846   2.415   1.156
  996MeO      C 5971   3.218   3.027   2.846
  996MeO     HA 5972   3.237   2.968   2.936
  996MeO     HB 5973   3.164   2.965   2.775
  996MeO     HC 5974   3.314   3.055   2.802
  996MeO      O 5975   3.143   3.142   2.878
  996MeO      H 5976   3.060   3.111   2.918
  997MeO      C 5977   3.775   3.751   2.210
  997MeO     HA 5978   3.815   3.849   2.237
  997MeO     HB 5979   3.806   3.679   2.286
  997MeO     HC 5980   3.818   3.721   2.114
  997MeO      O 5981   3.634   3.755   2.201
  997MeO      H 5982   3.604   3.664   2.184
  998MeO      C 5983   0.138   0.979   1.048
  998MeO     HA 5984   0.168   1.051   1.124
  998MeO     HB 5985   0.223   0.958   0.984
  998MeO     HC 5986   0.108   0.887   1.098
  998MeO      O 5987   0.030   1.030   0.971
  998MeO      H 5988   0.011   0.965   0.903
  999MeO      C 5989   1.032   1.370   4.004
  999MeO     HA 5990   0.977   1.461   3.981
  999MeO     HB 5991   0.961   1.291   4.027
  999MeO     HC 5992   1.089   1.341   3.916
  999MeO      O 5993   1.119   1.391   4.113
  999MeO      H 5994   1.177   1.463   4.087
 1000MeO      C 5995   1.947   4.806   1.957
 1000MeO     HA 5996   1.941   4.698   1.963
 1000MeO     HB 5997   1.958   4.846   2.058
 1000MeO     HC 5998   2.036   4.833   1.900
 1000MeO      O 5999   1.832   4.860   1.896
 1000MeO      H 6000   1.845   0.030   1.891
 1001MeO      C 6001   1.929   0.209   2.419
 1001MeO     HA 6002   1.860   0.284   2.456
 1001MeO     HB 6003   1.880   0.153   2.340
 1001MeO     HC 6004   1.953   0.140   2.500
 1001MeO      O 6005   2.048   0.268   2.369
 1001MeO      H 6006   2.100   0.195   2.334
 1002MeO      C 6007   0.366   2.484   2.827
 1002MeO     HA 6008   0.300   2.425   2.764
 1002MeO     HB 6009   0.416   2.558   2.764
 1002MeO     HC 6010   0.442   2.418   2.870
 1002MeO      O 6011   0.294   2.547   2.930
 1002MeO      H 6012   0.256   2.478   2.985
 1003MeO      C 6013   1.190   4.283   2.500
 1003MeO     HA 6014   1.188   4.270   2.609
 1003MeO     HB 6015   1.116   4.217   2.456
 1003MeO     HC 6016   1.289   4.253   2.465
 1003MeO      O 6017   1.164   4.417   2.465
 1003MeO      H 6018   1.168   4.422   2.369
 1004MeO      C 6019   2.986   0.339   0.927
 1004MeO     HA 6020   3.015   0.388   1.020
 1004MeO     HB 6021   2.902   0.272   0.948
 1004MeO     HC 6022   2.952   0.415   0.857
 1004MeO      O 6023   3.094   0.267   0.874
 1004MeO      H 6024   3.122   0.202   0.940
 1005MeO      C 6025   0.640   3.888   1.182
 1005MeO     HA 6026   0.630   3.994   1.205
 1005MeO     HB 6027   0.555   3.858   1.120
 1005MeO     HC 6028   0.732   3.873   1.125
 1005MeO      O 6029   0.644   3.813   1.302
 1005MeO      H 6030   0.720   3.843   1.351
 1006MeO      C 6031   4.035   1.838   3.556
 1006MeO     HA 6032   4.072   1.937   3.581
 1006MeO     HB 6033   3.960   1.809   3.630
 1006MeO     HC 6034   3.986   1.844   3.458
 1006MeO      O 6035   4.141   1.745   3.553
 1006MeO      H 6036   4.203   1.775   3.486
 1007MeO      C 6037   3.770   2.864   3.051
 1007MeO     HA 6038   3.803   2.958   3.007
 1007MeO     HB 6039   3.704   2.814   2.981
 1007MeO     HC 6040   3.714   2.886   3.142
 1007MeO      O 6041   3.882   2.782   3.081
 1007MeO      H 6042   3.846   2.703   3.124
 1008MeO      C 6043   2.559   2.985   1.216
 1008MeO     HA 6044   2.577   2.921   1.301
 1008MeO     HB 6045   2.452   2.984   1.194
 1008MeO     HC 6046   2.612   2.946   1.130
 1008MeO      O 6047   2.601   3.117   1.245
 1008MeO      H 6048   2.556   3.142   1.327
 1009MeO      C 6049   1.781   3.969   4.331
 1009MeO     HA 6050   1.779   3.863   4.302
 1009MeO     HB 6051   1.817   4.027   4.246
 1009MeO     HC 6052   1.679   4.001   4.353
 1009MeO      O 6053   1.864   3.989   4.443
 1009MeO      H 6054   1.870   4.084   4.455
 1010MeO      C 6055   1.828   3.090   2.450
 1010MeO     HA 6056   1.721   3.098   2.473
 1010MeO     HB 6057   1.856   3.175   2.388
 1010MeO     HC 6058   1.845   2.999   2.393
 1010MeO      O 6059   1.903   3.089   2.569
 1010MeO      H 6060   1.996   3.076   2.544
 1011MeO      C 6061   3.934   0.479   3.397
 1011MeO     HA 6062   3.883   0.496   3.302
 1011MeO     HB 6063   3.964   0.576   3.437
 1011MeO     HC 6064   3.864   0.433   3.466
 1011MeO      O 6065   4.047   0.397   3.378
 1011MeO      H 6066   4.104   0.443   3.317
 1012MeO      C 6067   1.912   2.419   3.201
 1012MeO     HA 6068   1.932   2.510   3.258
 1012MeO     HB 6069   1.910   2.335   3.270
 1012MeO     HC 6070   1.813   2.428   3.155
 1012MeO      O 6071   2.012   2.400   3.102
 1012MeO      H 6072   2.096   2.393   3.149
 1013MeO      C 6073   3.734   2.147   3.357
 1013MeO     HA 6074   3.640   2.191   3.391
 1013MeO     HB 6075   3.799   2.227   3.324
 1013MeO     HC 6076   3.713   2.081   3.273
 1013MeO      O 6077   3.795   2.074   3.462
 1013MeO      H 6078   3.816   2.137   3.532
 1014MeO      C 6079   1.220   1.935   4.477
 1014MeO     HA 6080   1.128   1.979   4.437
 1014MeO     HB 6081   1.301   2.006   4.466
 1014MeO     HC 6082   1.204   1.916   4.583
 1014MeO      O 6083   1.249   1.814   4.410
 1014MeO      H 6084   1.172   1.757   4.422
 1015MeO      C 6085   1.661   4.160   3.505
 1015MeO     HA 6086   1.553   4.142   3.507
 1015MeO     HB 6087   1.701   4.141   3.605
 1015MeO     HC 6088   1.707   4.090   3.436
 1015MeO      O 6089   1.689   4.293   3.466
 1015MeO      H 6090   1.786   4.300   3.465
 1016MeO      C 6091   4.025   0.204   3.081
 1016MeO     HA 6092   4.083   0.260   3.154
 1016MeO     HB 6093   3.983   0.116   3.130
 1016MeO     HC 6094   3.944   0.267   3.045
 1016MeO      O 6095   4.110   0.164   2.975
 1016MeO      H 6096   4.181   0.113   3.014
 1017MeO      C 6097   0.452   2.246   1.808
 1017MeO     HA 6098   0.442   2.151   1.755
 1017MeO     HB 6099   0.545   2.244   1.865
 1017MeO     HC 6100   0.369   2.256   1.877
 1017MeO      O 6101   0.452   2.353   1.716
 1017MeO      H 6102   0.368   2.349   1.668
 1018MeO      C 6103   1.904   1.878   3.927
 1018MeO     HA 6104   1.995   1.824   3.903
 1018MeO     HB 6105   1.927   1.953   4.004
 1018MeO     HC 6106   1.870   1.930   3.837
 1018MeO      O 6107   1.804   1.790   3.973
 1018MeO      H 6108   1.785   1.728   3.901
 1019MeO      C 6109   2.913   3.132   3.122
 1019MeO     HA 6110   2.855   3.079   3.198
 1019MeO     HB 6111   2.870   3.231   3.110
 1019MeO     HC 6112   3.016   3.143   3.158
 1019MeO      O 6113   2.910   3.062   3.000
 1019MeO      H 6114   2.818   3.054   2.974
 1020MeO      C 6115   2.341   3.977   0.837
 1020MeO     HA 6116   2.330   3.938   0.735
 1020MeO     HB 6117   2.309   3.900   0.907
 1020MeO     HC 6118   2.277   4.064   0.848
 1020MeO      O 6119   2.476   4.012   0.860
 1020MeO      H 6120   2.499   4.079   0.794
 1021MeO      C 6121   3.576   0.863   0.270
 1021MeO     HA 6122   3.618   0.793   0.342
 1021MeO     HB 6123   3.488   0.817   0.225
 1021MeO     HC 6124   3.649   0.881   0.191
 1021MeO      O 6125   3.540   0.983   0.334
 1021MeO      H 6126   3.474   0.962   0.401
 1022MeO      C 6127   1.090   0.439   4.528
 1022MeO     HA 6128   1.082   0.333   4.505
 1022MeO     HB 6129   1.026   0.495   4.460
 1022MeO     HC 6130   1.054   0.455   4.630
 1022MeO      O 6131   1.224   0.482   4.516
 1022MeO      H 6132   1.224   0.577   4.533
 1023MeO      C 6133   2.443   0.307   0.683
 1023MeO     HA 6134   2.406   0.409   0.679
 1023MeO     HB 6135   2.361   0.241   0.711
 1023MeO     HC 6136   2.520   0.301   0.759
 1023MeO      O 6137   2.493   0.269   0.556
 1023MeO      H 6138   2.422   0.285   0.493
 1024MeO      C 6139   2.641   0.388   4.332
 1024MeO     HA 6140   2.685   0.304   4.386
 1024MeO     HB 6141   2.707   0.474   4.342
 1024MeO     HC 6142   2.633   0.361   4.227
 1024MeO      O 6143   2.513   0.417   4.384
 1024MeO      H 6144   2.459   0.338   4.371
 1025MeO      C 6145   1.363   4.690   2.330
 1025MeO     HA 6146   1.290   4.695   2.411
 1025MeO     HB 6147   1.428   4.776   2.336
 1025MeO     HC 6148   1.423   4.600   2.344
 1025MeO      O 6149   1.298   4.686   2.205
 1025MeO      H 6150   1.250   4.604   2.201
 1026MeO      C 6151   1.342   3.762   2.257
 1026MeO     HA 6152   1.254   3.748   2.195
 1026MeO     HB 6153   1.364   3.869   2.261
 1026MeO     HC 6154   1.426   3.711   2.212
 1026MeO      O 6155   1.317   3.713   2.388
 1026MeO      H 6156   1.244   3.766   2.423
 1027MeO      C 6157   3.327   3.924   2.498
 1027MeO     HA 6158   3.249   3.866   2.449
 1027MeO     HB 6159   3.286   4.023   2.521
 1027MeO     HC 6160   3.410   3.937   2.429
 1027MeO      O 6161   3.369   3.860   2.616
 1027MeO      H 6162   3.429   3.922   2.660
 1028MeO      C 6163   4.800   4.674   4.752
 1028MeO     HA 6164   4.807   4.656   4.859
 1028MeO     HB 6165   4.785   4.578   4.702
 1028MeO     HC 6166   4.714   4.737   4.732
 1028MeO      O 6167   4.918   4.735   4.705
 1028MeO      H 6168   0.066   4.677   4.727
 1029MeO      C 6169   4.087   2.684   4.592
 1029MeO     HA 6170   4.038   2.663   4.497
 1029MeO     HB 6171   4.146   2.775   4.580
 1029MeO     HC 6172   4.154   2.602   4.615
 1029MeO      O 6173   3.991   2.701   4.695
 1029MeO      H 6174   3.936   2.622   4.695
 1030MeO      C 6175   4.135   3.234   0.075
 1030MeO     HA 6176   4.037   3.213   0.117
 1030MeO     HB 6177   4.175   3.141   0.033
 1030MeO     HC 6178   4.201   3.266   0.156
 1030MeO      O 6179   4.127   3.334   4.902
 1030MeO      H 6180   4.090   3.412   0.019
 1031MeO      C 6181   1.353   4.700   0.583
 1031MeO     HA 6182   1.320   4.671   0.483
 1031MeO     HB 6183   1.266   4.716   0.646
 1031MeO     HC 6184   1.411   4.618   0.624
 1031MeO      O 6185   1.432   4.816   0.576
 1031MeO      H 6186   1.514   4.790   0.530
 1032MeO      C 6187   4.248   1.407   0.283
 1032MeO     HA 6188   4.264   1.301   0.298
 1032MeO     HB 6189   4.143   1.430   0.302
 1032MeO     HC 6190   4.309   1.461   0.355
 1032MeO      O 6191   4.284   1.443   0.151
 1032MeO      H 6192   4.379   1.427   0.144
 1033MeO      C 6193   3.119   3.508   1.370
 1033MeO     HA 6194   3.161   3.453   1.454
 1033MeO     HB 6195   3.112   3.441   1.284
 1033MeO     HC 6196   3.186   3.590   1.345
 1033MeO      O 6197   2.992   3.559   1.404
 1033MeO      H 6198   3.004   3.617   1.479
 1034MeO      C 6199   3.608   0.182   3.730
 1034MeO     HA 6200   3.582   0.082   3.765
 1034MeO     HB 6201   3.651   0.174   3.630
 1034MeO     HC 6202   3.683   0.224   3.797
 1034MeO      O 6203   3.493   0.265   3.728
 1034MeO      H 6204   3.461   0.269   3.818
 1035MeO      C 6205   4.645   4.409   4.037
 1035MeO     HA 6206   4.617   4.449   3.939
 1035MeO     HB 6207   4.730   4.466   4.073
 1035MeO     HC 6208   4.676   4.305   4.024
 1035MeO      O 6209   4.538   4.419   4.127
 1035MeO      H 6210   4.518   4.512   4.138
 1036MeO      C 6211   3.858   4.566   1.248
 1036MeO     HA 6212   3.849   4.618   1.344
 1036MeO     HB 6213   3.772   4.500   1.237
 1036MeO     HC 6214   3.856   4.641   1.169
 1036MeO      O 6215   3.978   4.492   1.243
 1036MeO      H 6216   4.050   4.555   1.258
 1037MeO      C 6217   4.191   3.905   1.269
 1037MeO     HA 6218   4.282   3.932   1.214
 1037MeO     HB 6219   4.150   3.995   1.314
 1037MeO     HC 6220   4.118   3.866   1.198
 1037MeO      O 6221   4.220   3.809   1.369
 1037MeO      H 6222   4.284   3.850   1.429
 1038MeO      C 6223   2.464   0.841   3.855
 1038MeO     HA 6224   2.400   0.807   3.936
 1038MeO     HB 6225   2.403   0.848   3.764
 1038MeO     HC 6226   2.542   0.767   3.838
 1038MeO      O 6227   2.520   0.967   3.886
 1038MeO      H 6228   2.576   0.993   3.812
 1039MeO      C 6229   1.611   0.307   0.065
 1039MeO     HA 6230   1.632   0.314   4.884
 1039MeO     HB 6231   1.516   0.254   0.078
 1039MeO     HC 6232   1.690   0.248   0.113
 1039MeO      O 6233   1.604   0.436   0.123
 1039MeO      H 6234   1.690   0.477   0.108
 1040MeO      C 6235   3.000   3.922   4.596
 1040MeO     HA 6236   3.099   3.948   4.633
 1040MeO     HB 6237   2.978   3.819   4.623
 1040MeO     HC 6238   3.000   3.930   4.488
 1040MeO      O 6239   2.903   4.009   4.652
 1040MeO      H 6240   2.909   4.000   4.748
 1041MeO      C 6241   0.968   1.743   1.270
 1041MeO     HA 6242   1.041   1.743   1.352
 1041MeO     HB 6243   0.872   1.709   1.309
 1041MeO     HC 6244   1.002   1.673   1.194
 1041MeO      O 6245   0.956   1.873   1.216
 1041MeO      H 6246   0.925   1.931   1.287
 1042MeO      C 6247   2.287   4.427   0.636
 1042MeO     HA 6248   2.347   4.395   0.550
 1042MeO     HB 6249   2.341   4.399   0.727
 1042MeO     HC 6250   2.193   4.373   0.635
 1042MeO      O 6251   2.266   4.566   0.632
 1042MeO      H 6252   2.352   4.607   0.642
 1043MeO      C 6253   0.669   4.135   4.476
 1043MeO     HA 6254   0.569   4.173   4.456
 1043MeO     HB 6255   0.727   4.140   4.384
 1043MeO     HC 6256   0.661   4.030   4.505
 1043MeO      O 6257   0.732   4.210   4.577
 1043MeO      H 6258   0.822   4.175   4.585
 1044MeO      C 6259   4.729   0.144   2.928
 1044MeO     HA 6260   4.663   0.225   2.958
 1044MeO     HB 6261   4.721   0.063   3.000
 1044MeO     HC 6262   4.832   0.182   2.930
 1044MeO      O 6263   4.696   0.099   2.798
 1044MeO      H 6264   4.705   0.174   2.738
 1045MeO      C 6265   1.815   1.428   2.117
 1045MeO     HA 6266   1.752   1.346   2.082
 1045MeO     HB 6267   1.778   1.521   2.074
 1045MeO     HC 6268   1.917   1.412   2.083
 1045MeO      O 6269   1.811   1.436   2.259
 1045MeO      H 6270   1.718   1.446   2.283
 1046MeO      C 6271   0.429   3.131   0.282
 1046MeO     HA 6272   0.493   3.218   0.295
 1046MeO     HB 6273   0.482   3.056   0.223
 1046MeO     HC 6274   0.340   3.162   0.226
 1046MeO      O 6275   0.391   3.077   0.407
 1046MeO      H 6276   0.335   3.001   0.388
 1047MeO      C 6277   3.389   3.243   2.385
 1047MeO     HA 6278   3.367   3.136   2.390
 1047MeO     HB 6279   3.485   3.260   2.434
 1047MeO     HC 6280   3.312   3.297   2.441
 1047MeO      O 6281   3.393   3.286   2.251
 1047MeO      H 6282   3.311   3.257   2.210
 1048MeO      C 6283   3.203   1.582   0.545
 1048MeO     HA 6284   3.104   1.536   0.547
 1048MeO     HB 6285   3.275   1.507   0.513
 1048MeO     HC 6286   3.228   1.615   0.645
 1048MeO      O 6287   3.203   1.691   0.455
 1048MeO      H 6288   3.185   1.653   0.368
 1049MeO      C 6289   0.059   1.368   3.085
 1049MeO     HA 6290   0.010   1.461   3.059
 1049MeO     HB 6291   4.925   1.285   3.047
 1049MeO     HC 6292   0.157   1.365   3.037
 1049MeO      O 6293   0.072   1.358   3.226
 1049MeO      H 6294   4.908   1.361   3.260
 1050MeO      C 6295   4.814   1.801   4.631
 1050MeO     HA 6296   4.761   1.894   4.652
 1050MeO     HB 6297   4.801   1.776   4.526
 1050MeO     HC 6298   4.920   1.817   4.651
 1050MeO      O 6299   4.764   1.697   4.713
 1050MeO      H 6300   4.782   1.723   4.804
 1051MeO      C 6301   2.511   3.208   0.932
 1051MeO     HA 6302   2.414   3.193   0.979
 1051MeO     HB 6303   2.498   3.268   0.842
 1051MeO     HC 6304   2.551   3.111   0.903
 1051MeO      O 6305   2.599   3.272   1.022
 1051MeO      H 6306   2.601   3.217   1.101
 1052MeO      C 6307   2.707   1.270   3.114
 1052MeO     HA 6308   2.707   1.183   3.048
 1052MeO     HB 6309   2.788   1.336   3.085
 1052MeO     HC 6310   2.724   1.235   3.216
 1052MeO      O 6311   2.582   1.337   3.106
 1052MeO      H 6312   2.516   1.273   3.133
 1053MeO      C 6313   4.032   1.718   1.589
 1053MeO     HA 6314   4.074   1.809   1.546
 1053MeO     HB 6315   4.011   1.647   1.508
 1053MeO     HC 6316   3.937   1.742   1.637
 1053MeO      O 6317   4.123   1.661   1.680
 1053MeO      H 6318   4.202   1.638   1.630
 1054MeO      C 6319   2.634   0.012   0.854
 1054MeO     HA 6320   2.659   0.065   0.946
 1054MeO     HB 6321   2.716   4.869   0.830
 1054MeO     HC 6322   2.626   0.085   0.773
 1054MeO      O 6323   2.513   4.867   0.870
 1054MeO      H 6324   2.446   0.005   0.900
 1055MeO      C 6325   0.273   0.237   4.028
 1055MeO     HA 6326   0.270   0.261   3.922
 1055MeO     HB 6327   0.368   0.190   4.051
 1055MeO     HC 6328   0.266   0.330   4.085
 1055MeO      O 6329   0.166   0.151   4.063
 1055MeO      H 6330   0.179   0.128   4.155
 1056MeO      C 6331   1.304   4.300   3.397
 1056MeO     HA 6332   1.347   4.281   3.495
 1056MeO     HB 6333   1.343   4.227   3.327
 1056MeO     HC 6334   1.335   4.400   3.365
 1056MeO      O 6335   1.163   4.292   3.403
 1056MeO      H 6336   1.141   4.201   3.427
 1057MeO      C 6337   1.409   4.911   0.905
 1057MeO     HA 6338   1.349   4.829   0.866
 1057MeO     HB 6339   1.449   0.042   0.821
 1057MeO     HC 6340   1.492   4.871   0.962
 1057MeO      O 6341   1.329   0.069   0.987
 1057MeO      H 6342   1.262   0.109   0.929
 1058MeO      C 6343   4.046   4.054   3.354
 1058MeO     HA 6344   4.107   3.965   3.333
 1058MeO     HB 6345   4.069   4.129   3.279
 1058MeO     HC 6346   4.074   4.092   3.452
 1058MeO      O 6347   3.909   4.020   3.352
 1058MeO      H 6348   3.898   3.948   3.415
 1059MeO      C 6349   4.381   2.335   3.582
 1059MeO     HA 6350   4.381   2.245   3.520
 1059MeO     HB 6351   4.456   2.323   3.660
 1059MeO     HC 6352   4.284   2.346   3.629
 1059MeO      O 6353   4.411   2.449   3.504
 1059MeO      H 6354   4.406   2.525   3.562
 1060MeO      C 6355   1.575   2.059   2.761
 1060MeO     HA 6356   1.609   2.078   2.863
 1060MeO     HB 6357   1.659   2.071   2.693
 1060MeO     HC 6358   1.542   1.955   2.755
 1060MeO      O 6359   1.470   2.146   2.726
 1060MeO      H 6360   1.446   2.125   2.635
 1061MeO      C 6361   4.231   1.368   0.669
 1061MeO     HA 6362   4.223   1.266   0.630
 1061MeO     HB 6363   4.337   1.396   0.670
 1061MeO     HC 6364   4.195   1.369   0.771
 1061MeO      O 6365   4.157   1.458   0.590
 1061MeO      H 6366   4.161   1.544   0.634
 1062MeO      C 6367   4.210   4.518   4.052
 1062MeO     HA 6368   4.263   4.477   3.966
 1062MeO     HB 6369   4.257   4.481   4.143
 1062MeO     HC 6370   4.107   4.483   4.049
 1062MeO      O 6371   4.214   4.660   4.048
 1062MeO      H 6372   4.167   4.686   3.967
 1063MeO      C 6373   3.430   4.241   1.187
 1063MeO     HA 6374   3.359   4.204   1.112
 1063MeO     HB 6375   3.386   4.328   1.236
 1063MeO     HC 6376   3.521   4.272   1.136
 1063MeO      O 6377   3.459   4.140   1.281
 1063MeO      H 6378   3.520   4.180   1.344
 1064MeO      C 6379   0.132   4.879   3.596
 1064MeO     HA 6380   0.038   4.887   3.651
 1064MeO     HB 6381   0.192   4.801   3.643
 1064MeO     HC 6382   0.185   0.048   3.605
 1064MeO      O 6383   0.108   4.848   3.461
 1064MeO      H 6384   0.057   4.765   3.460
 1065MeO      C 6385   4.522   0.846   1.322
 1065MeO     HA 6386   4.554   0.748   1.356
 1065MeO     HB 6387   4.498   0.908   1.408
 1065MeO     HC 6388   4.605   0.893   1.268
 1065MeO      O 6389   4.409   0.834   1.237
 1065MeO      H 6390   4.438   0.784   1.160
 1066MeO      C 6391   2.212   3.496   1.852
 1066MeO     HA 6392   2.219   3.441   1.758
 1066MeO     HB 6393   2.115   3.546   1.856
 1066MeO     HC 6394   2.218   3.424   1.934
 1066MeO      O 6395   2.316   3.590   1.862
 1066MeO      H 6396   2.307   3.651   1.788
 1067MeO      C 6397   2.054   4.287   3.566
 1067MeO     HA 6398   2.145   4.247   3.523
 1067MeO     HB 6399   2.079   4.379   3.619
 1067MeO     HC 6400   2.016   4.215   3.639
 1067MeO      O 6401   1.958   4.311   3.466
 1067MeO      H 6402   1.999   4.370   3.401
 1068MeO      C 6403   4.465   4.441   0.897
 1068MeO     HA 6404   4.495   4.545   0.901
 1068MeO     HB 6405   4.389   4.424   0.973
 1068MeO     HC 6406   4.551   4.379   0.919
 1068MeO      O 6407   4.415   4.409   0.769
 1068MeO      H 6408   4.488   4.424   0.708
 1069MeO      C 6409   0.388   2.877   2.710
 1069MeO     HA 6410   0.337   2.847   2.802
 1069MeO     HB 6411   0.455   2.796   2.681
 1069MeO     HC 6412   0.314   2.891   2.632
 1069MeO      O 6413   0.462   2.995   2.730
 1069MeO      H 6414   0.505   3.017   2.647
 1070MeO      C 6415   1.143   1.018   3.340
 1070MeO     HA 6416   1.081   1.058   3.421
 1070MeO     HB 6417   1.108   0.918   3.316
 1070MeO     HC 6418   1.130   1.082   3.253
 1070MeO      O 6419   1.278   1.016   3.378
 1070MeO      H 6420   1.303   1.108   3.396
 1071MeO      C 6421   0.365   1.917   4.496
 1071MeO     HA 6422   0.266   1.943   4.460
 1071MeO     HB 6423   0.416   2.007   4.530
 1071MeO     HC 6424   0.354   1.848   4.580
 1071MeO      O 6425   0.439   1.855   4.393
 1071MeO      H 6426   0.392   1.775   4.367
 1072MeO      C 6427   4.862   4.779   4.374
 1072MeO     HA 6428   4.846   4.672   4.370
 1072MeO     HB 6429   4.777   4.825   4.424
 1072MeO     HC 6430   4.868   4.819   4.273
 1072MeO      O 6431   0.055   4.808   4.445
 1072MeO      H 6432   0.038   4.782   4.537
 1073MeO      C 6433   1.368   1.173   0.886
 1073MeO     HA 6434   1.363   1.152   0.993
 1073MeO     HB 6435   1.268   1.160   0.844
 1073MeO     HC 6436   1.435   1.101   0.840
 1073MeO      O 6437   1.414   1.305   0.864
 1073MeO      H 6438   1.410   1.320   0.769
 1074MeO      C 6439   3.281   3.205   0.551
 1074MeO     HA 6440   3.209   3.125   0.568
 1074MeO     HB 6441   3.368   3.189   0.615
 1074MeO     HC 6442   3.235   3.300   0.578
 1074MeO      O 6443   3.321   3.207   0.415
 1074MeO      H 6444   3.382   3.281   0.406
 1075MeO      C 6445   4.603   4.458   1.339
 1075MeO     HA 6446   4.519   4.437   1.405
 1075MeO     HB 6447   4.675   4.377   1.348
 1075MeO     HC 6448   4.651   4.550   1.372
 1075MeO      O 6449   4.560   4.470   1.205
 1075MeO      H 6450   4.638   4.490   1.152
 1076MeO      C 6451   1.942   1.354   0.956
 1076MeO     HA 6452   1.954   1.361   0.847
 1076MeO     HB 6453   1.990   1.261   0.989
 1076MeO     HC 6454   1.836   1.348   0.979
 1076MeO      O 6455   2.001   1.466   1.018
 1076MeO      H 6456   1.951   1.542   0.990
 1077MeO      C 6457   2.183   3.341   4.598
 1077MeO     HA 6458   2.085   3.387   4.604
 1077MeO     HB 6459   2.256   3.409   4.643
 1077MeO     HC 6460   2.209   3.328   4.493
 1077MeO      O 6461   2.185   3.216   4.664
 1077MeO      H 6462   2.274   3.180   4.652
 1078MeO      C 6463   4.197   3.894   0.294
 1078MeO     HA 6464   4.230   3.968   0.220
 1078MeO     HB 6465   4.108   3.933   0.344
 1078MeO     HC 6466   4.170   3.803   0.241
 1078MeO      O 6467   4.299   3.868   0.389
 1078MeO      H 6468   4.266   3.798   0.445
 1079MeO      C 6469   1.985   1.645   4.223
 1079MeO     HA 6470   1.998   1.747   4.259
 1079MeO     HB 6471   2.051   1.630   4.138
 1079MeO     HC 6472   2.014   1.576   4.303
 1079MeO      O 6473   1.850   1.623   4.186
 1079MeO      H 6474   1.831   1.686   4.116
 1080MeO      C 6475   2.474   1.628   1.865
 1080MeO     HA 6476   2.471   1.736   1.849
 1080MeO     HB 6477   2.565   1.589   1.821
 1080MeO     HC 6478   2.389   1.584   1.813
 1080MeO      O 6479   2.468   1.597   2.003
 1080MeO      H 6480   2.478   1.501   2.008
 1081MeO      C 6481   3.614   3.078   2.109
 1081MeO     HA 6482   3.540   3.146   2.066
 1081MeO     HB 6483   3.566   3.022   2.189
 1081MeO     HC 6484   3.694   3.138   2.152
 1081MeO      O 6485   3.664   2.992   2.009
 1081MeO      H 6486   3.695   3.049   1.938
 1082MeO      C 6487   4.923   3.595   1.731
 1082MeO     HA 6488   0.010   3.530   1.645
 1082MeO     HB 6489   4.817   3.620   1.741
 1082MeO     HC 6490   0.053   3.687   1.714
 1082MeO      O 6491   0.044   3.532   1.848
 1082MeO      H 6492   0.137   3.510   1.834
 1083MeO      C 6493   3.314   3.701   4.672
 1083MeO     HA 6494   3.275   3.607   4.634
 1083MeO     HB 6495   3.420   3.688   4.694
 1083MeO     HC 6496   3.304   3.777   4.594
 1083MeO      O 6497   3.245   3.741   4.788
 1083MeO      H 6498   3.280   3.825   4.816
 1084MeO      C 6499   3.610   3.439   1.664
 1084MeO     HA 6500   3.623   3.424   1.557
 1084MeO     HB 6501   3.558   3.534   1.680
 1084MeO     HC 6502   3.547   3.359   1.703
 1084MeO      O 6503   3.736   3.441   1.728
 1084MeO      H 6504   3.782   3.518   1.693
 1085MeO      C 6505   0.235   3.677   0.948
 1085MeO     HA 6506   0.234   3.726   1.046
 1085MeO     HB 6507   0.266   3.750   0.873
 1085MeO     HC 6508   0.309   3.597   0.952
 1085MeO      O 6509   0.108   3.624   0.919
 1085MeO      H 6510   0.086   3.564   0.991
 1086MeO      C 6511   3.807   1.347   4.319
 1086MeO     HA 6512   3.797   1.243   4.348
 1086MeO     HB 6513   3.888   1.391   4.376
 1086MeO     HC 6514   3.715   1.400   4.343
 1086MeO      O 6515   3.835   1.356   4.181
 1086MeO      H 6516   3.914   1.303   4.165
 1087MeO      C 6517   0.790   0.204   3.757
 1087MeO     HA 6518   0.692   0.172   3.793
 1087MeO     HB 6519   0.777   0.295   3.698
 1087MeO     HC 6520   0.852   0.227   3.843
 1087MeO      O 6521   0.849   0.102   3.679
 1087MeO      H 6522   0.860   0.026   3.739
 1088MeO      C 6523   3.093   3.899   1.099
 1088MeO     HA 6524   3.110   3.981   1.168
 1088MeO     HB 6525   3.106   3.805   1.153
 1088MeO     HC 6526   2.990   3.904   1.063
 1088MeO      O 6527   3.184   3.906   0.991
 1088MeO      H 6528   3.272   3.907   1.030
 1089MeO      C 6529   0.580   3.616   4.111
 1089MeO     HA 6530   0.488   3.592   4.058
 1089MeO     HB 6531   0.622   3.524   4.152
 1089MeO     HC 6532   0.651   3.659   4.040
 1089MeO      O 6533   0.553   3.708   4.215
 1089MeO      H 6534   0.515   3.787   4.175
 1090MeO      C 6535   3.489   0.649   4.104
 1090MeO     HA 6536   3.496   0.718   4.020
 1090MeO     HB 6537   3.589   0.615   4.131
 1090MeO     HC 6538   3.446   0.703   4.188
 1090MeO      O 6539   3.406   0.539   4.070
 1090MeO      H 6540   3.320   0.576   4.047
 1091MeO      C 6541   4.679   1.438   0.124
 1091MeO     HA 6542   4.718   1.513   0.194
 1091MeO     HB 6543   4.751   1.356   0.119
 1091MeO     HC 6544   4.671   1.483   0.025
 1091MeO      O 6545   4.553   1.391   0.169
 1091MeO      H 6546   4.567   1.353   0.256
 1092MeO      C 6547   1.805   4.392   1.921
 1092MeO     HA 6548   1.889   4.323   1.914
 1092MeO     HB 6549   1.712   4.335   1.915
 1092MeO     HC 6550   1.809   4.441   2.018
 1092MeO      O 6551   1.811   4.488   1.818
 1092MeO      H 6552   1.741   4.551   1.836
 1093MeO      C 6553   4.826   0.652   1.209
 1093MeO     HA 6554   4.811   0.740   1.146
 1093MeO     HB 6555   4.863   0.571   1.147
 1093MeO     HC 6556   4.731   0.623   1.253
 1093MeO      O 6557   4.919   0.682   1.311
 1093MeO      H 6558   4.889   0.762   1.356
 1094MeO      C 6559   0.382   0.451   3.642
 1094MeO     HA 6560   0.454   0.373   3.616
 1094MeO     HB 6561   0.345   0.432   3.743
 1094MeO     HC 6562   0.435   0.547   3.643
 1094MeO      O 6563   0.276   0.454   3.549
 1094MeO      H 6564   0.315   0.471   3.463
 1095MeO      C 6565   2.296   4.026   1.201
 1095MeO     HA 6566   2.359   3.942   1.170
 1095MeO     HB 6567   2.286   4.094   1.117
 1095MeO     HC 6568   2.346   4.079   1.282
 1095MeO      O 6569   2.169   3.979   1.242
 1095MeO      H 6570   2.131   3.933   1.167
 1096MeO      C 6571   2.314   0.479   0.357
 1096MeO     HA 6572   2.419   0.498   0.338
 1096MeO     HB 6573   2.256   0.509   0.270
 1096MeO     HC 6574   2.283   0.541   0.442
 1096MeO      O 6575   2.292   0.342   0.386
 1096MeO      H 6576   2.197   0.328   0.396
 1097MeO      C 6577   3.274   2.692   3.835
 1097MeO     HA 6578   3.254   2.717   3.939
 1097MeO     HB 6579   3.296   2.785   3.781
 1097MeO     HC 6580   3.184   2.648   3.792
 1097MeO      O 6581   3.382   2.602   3.826
 1097MeO      H 6582   3.360   2.525   3.879
 1098MeO      C 6583   2.044   1.014   2.653
 1098MeO     HA 6584   2.031   1.058   2.554
 1098MeO     HB 6585   1.950   0.968   2.683
 1098MeO     HC 6586   2.121   0.937   2.647
 1098MeO      O 6587   2.081   1.114   2.746
 1098MeO      H 6588   2.012   1.181   2.744
 1099MeO      C 6589   2.187   1.359   3.325
 1099MeO     HA 6590   2.102   1.296   3.299
 1099MeO     HB 6591   2.222   1.410   3.236
 1099MeO     HC 6592   2.268   1.294   3.361
 1099MeO      O 6593   2.152   1.452   3.425
 1099MeO      H 6594   2.230   1.506   3.442
 1100MeO      C 6595   0.363   0.363   0.183
 1100MeO     HA 6596   0.262   0.395   0.208
 1100MeO     HB 6597   0.367   0.254   0.186
 1100MeO     HC 6598   0.432   0.402   0.257
 1100MeO      O 6599   0.398   0.410   0.054
 1100MeO      H 6600   0.487   0.378   0.035
 1101MeO      C 6601   4.578   4.341   4.444
 1101MeO     HA 6602   4.593   4.241   4.484
 1101MeO     HB 6603   4.663   4.367   4.381
 1101MeO     HC 6604   4.488   4.341   4.382
 1101MeO      O 6605   4.564   4.435   4.549
 1101MeO      H 6606   4.560   4.522   4.507
 1102MeO      C 6607   3.561   1.956   3.655
 1102MeO     HA 6608   3.630   2.003   3.726
 1102MeO     HB 6609   3.491   1.894   3.711
 1102MeO     HC 6610   3.506   2.035   3.604
 1102MeO      O 6611   3.633   1.879   3.561
 1102MeO      H 6612   3.693   1.940   3.517
 1103MeO      C 6613   2.042   0.944   3.525
 1103MeO     HA 6614   1.995   0.939   3.427
 1103MeO     HB 6615   2.148   0.923   3.514
 1103MeO     HC 6616   2.031   1.046   3.564
 1103MeO      O 6617   1.983   0.852   3.614
 1103MeO      H 6618   2.028   0.861   3.698
 1104MeO      C 6619   0.331   0.080   4.374
 1104MeO     HA 6620   0.383   4.921   4.329
 1104MeO     HB 6621   0.335   0.069   4.482
 1104MeO     HC 6622   0.384   0.172   4.347
 1104MeO      O 6623   0.197   0.086   4.330
 1104MeO      H 6624   0.154   0.006   4.365
 1105MeO      C 6625   2.700   3.826   1.572
 1105MeO     HA 6626   2.735   3.926   1.548
 1105MeO     HB 6627   2.778   3.775   1.628
 1105MeO     HC 6628   2.684   3.771   1.479
 1105MeO      O 6629   2.581   3.832   1.648
 1105MeO      H 6630   2.602   3.881   1.728
 1106MeO      C 6631   1.962   0.346   3.780
 1106MeO     HA 6632   2.050   0.331   3.843
 1106MeO     HB 6633   1.981   0.298   3.684
 1106MeO     HC 6634   1.949   0.453   3.763
 1106MeO      O 6635   1.848   0.291   3.840
 1106MeO      H 6636   1.871   0.201   3.866
 1107MeO      C 6637   4.914   0.938   1.552
 1107MeO     HA 6638   4.861   1.007   1.619
 1107MeO     HB 6639   0.084   0.983   1.527
 1107MeO     HC 6640   0.006   0.845   1.605
 1107MeO      O 6641   4.839   0.916   1.435
 1107MeO      H 6642   4.831   1.001   1.390
 1108MeO      C 6643   0.916   1.155   2.556
 1108MeO     HA 6644   0.909   1.255   2.513
 1108MeO     HB 6645   0.982   1.160   2.643
 1108MeO     HC 6646   0.962   1.088   2.483
 1108MeO      O 6647   0.789   1.107   2.594
 1108MeO      H 6648   0.802   1.020   2.634
 1109MeO      C 6649   2.449   4.223   2.284
 1109MeO     HA 6650   2.346   4.191   2.267
 1109MeO     HB 6651   2.486   4.174   2.374
 1109MeO     HC 6652   2.510   4.190   2.200
 1109MeO      O 6653   2.457   4.363   2.298
 1109MeO      H 6654   2.550   4.384   2.310
 1110MeO      C 6655   1.791   2.651   4.163
 1110MeO     HA 6656   1.781   2.565   4.097
 1110MeO     HB 6657   1.855   2.623   4.247
 1110MeO     HC 6658   1.693   2.677   4.202
 1110MeO      O 6659   1.847   2.760   4.094
 1110MeO      H 6660   1.848   2.835   4.154
 1111MeO      C 6661   1.017   1.528   0.941
 1111MeO     HA 6662   1.005   1.636   0.928
 1111MeO     HB 6663   1.068   1.488   0.854
 1111MeO     HC 6664   1.079   1.510   1.029
 1111MeO      O 6665   0.890   1.467   0.957
 1111MeO      H 6666   0.841   1.484   0.876
 1112MeO      C 6667   4.475   3.229   2.528
 1112MeO     HA 6668   4.455   3.184   2.626
 1112MeO     HB 6669   4.582   3.236   2.514
 1112MeO     HC 6670   4.433   3.164   2.452
 1112MeO      O 6671   4.415   3.357   2.521
 1112MeO      H 6672   4.319   3.343   2.524
 1113MeO      C 6673   2.823   1.778   2.209
 1113MeO     HA 6674   2.735   1.781   2.145
 1113MeO     HB 6675   2.791   1.761   2.312
 1113MeO     HC 6676   2.885   1.694   2.178
 1113MeO      O 6677   2.895   1.899   2.200
 1113MeO      H 6678   2.917   1.912   2.107
 1114MeO      C 6679   0.731   4.766   3.146
 1114MeO     HA 6680   0.721   4.831   3.059
 1114MeO     HB 6681   0.793   4.816   3.220
 1114MeO     HC 6682   0.781   4.674   3.114
 1114MeO      O 6683   0.603   4.739   3.200
 1114MeO      H 6684   0.567   4.823   3.228
 1115MeO      C 6685   1.724   1.051   1.906
 1115MeO     HA 6686   1.678   0.984   1.834
 1115MeO     HB 6687   1.702   1.016   2.007
 1115MeO     HC 6688   1.680   1.150   1.893
 1115MeO      O 6689   1.864   1.057   1.885
 1115MeO      H 6690   1.875   1.080   1.791
 1116MeO      C 6691   4.710   0.775   1.867
 1116MeO     HA 6692   4.705   0.671   1.897
 1116MeO     HB 6693   4.794   0.789   1.799
 1116MeO     HC 6694   4.619   0.800   1.813
 1116MeO      O 6695   4.725   0.859   1.980
 1116MeO      H 6696   4.723   0.950   1.947
 1117MeO      C 6697   4.763   0.614   2.205
 1117MeO     HA 6698   4.789   0.559   2.296
 1117MeO     HB 6699   4.659   0.645   2.212
 1117MeO     HC 6700   4.774   0.548   2.120
 1117MeO      O 6701   4.846   0.728   2.190
 1117MeO      H 6702   4.811   0.776   2.114
 1118MeO      C 6703   4.594   0.946   2.301
 1118MeO     HA 6704   4.703   0.943   2.301
 1118MeO     HB 6705   4.558   0.884   2.219
 1118MeO     HC 6706   4.563   1.049   2.283
 1118MeO      O 6707   4.543   0.900   2.424
 1118MeO      H 6708   4.582   0.954   2.493
 1119MeO      C 6709   4.608   3.163   0.338
 1119MeO     HA 6710   4.677   3.229   0.285
 1119MeO     HB 6711   4.535   3.225   0.390
 1119MeO     HC 6712   4.664   3.106   0.412
 1119MeO      O 6713   4.542   3.076   0.248
 1119MeO      H 6714   4.485   3.020   0.300
 1120MeO      C 6715   1.441   2.272   4.622
 1120MeO     HA 6716   1.538   2.223   4.626
 1120MeO     HB 6717   1.447   2.365   4.678
 1120MeO     HC 6718   1.418   2.296   4.518
 1120MeO      O 6719   1.341   2.189   4.675
 1120MeO      H 6720   1.369   2.166   4.765
 1121MeO      C 6721   1.766   1.373   4.400
 1121MeO     HA 6722   1.738   1.276   4.440
 1121MeO     HB 6723   1.865   1.400   4.439
 1121MeO     HC 6724   1.694   1.447   4.434
 1121MeO      O 6725   1.770   1.370   4.258
 1121MeO      H 6726   1.797   1.458   4.230
 1122MeO      C 6727   0.966   1.229   2.163
 1122MeO     HA 6728   0.974   1.324   2.111
 1122MeO     HB 6729   0.880   1.175   2.123
 1122MeO     HC 6730   0.949   1.249   2.268
 1122MeO      O 6731   1.084   1.153   2.146
 1122MeO      H 6732   1.072   1.069   2.191
 1123MeO      C 6733   4.580   2.407   1.132
 1123MeO     HA 6734   4.507   2.331   1.161
 1123MeO     HB 6735   4.587   2.408   1.023
 1123MeO     HC 6736   4.545   2.504   1.165
 1123MeO      O 6737   4.707   2.377   1.188
 1123MeO      H 6738   4.734   2.291   1.154
 1124MeO      C 6739   3.919   2.342   3.012
 1124MeO     HA 6740   3.980   2.377   3.094
 1124MeO     HB 6741   3.853   2.423   2.981
 1124MeO     HC 6742   3.857   2.259   3.047
 1124MeO      O 6743   3.999   2.301   2.903
 1124MeO      H 6744   3.938   2.282   2.830
 1125MeO      C 6745   0.602   1.816   1.909
 1125MeO     HA 6746   0.711   1.808   1.899
 1125MeO     HB 6747   0.557   1.723   1.876
 1125MeO     HC 6748   0.568   1.897   1.845
 1125MeO      O 6749   0.569   1.843   2.044
 1125MeO      H 6750   0.613   1.926   2.067
 1126MeO      C 6751   0.646   3.497   1.169
 1126MeO     HA 6752   0.583   3.513   1.256
 1126MeO     HB 6753   0.711   3.584   1.157
 1126MeO     HC 6754   0.709   3.410   1.186
 1126MeO      O 6755   0.568   3.480   1.052
 1126MeO      H 6756   0.630   3.477   0.978
 1127MeO      C 6757   4.222   2.013   2.898
 1127MeO     HA 6758   4.258   2.049   2.994
 1127MeO     HB 6759   4.240   1.906   2.892
 1127MeO     HC 6760   4.278   2.063   2.819
 1127MeO      O 6761   4.084   2.040   2.885
 1127MeO      H 6762   4.072   2.135   2.889
 1128MeO      C 6763   2.577   4.438   4.476
 1128MeO     HA 6764   2.644   4.472   4.555
 1128MeO     HB 6765   2.576   4.512   4.397
 1128MeO     HC 6766   2.615   4.344   4.436
 1128MeO      O 6767   2.447   4.418   4.528
 1128MeO      H 6768   2.456   4.351   4.596
 1129MeO      C 6769   4.460   1.019   3.920
 1129MeO     HA 6770   4.403   1.111   3.928
 1129MeO     HB 6771   4.565   1.044   3.901
 1129MeO     HC 6772   4.423   0.962   3.835
 1129MeO      O 6773   4.450   0.943   4.039
 1129MeO      H 6774   4.505   0.865   4.025
 1130MeO      C 6775   2.117   1.696   3.083
 1130MeO     HA 6776   2.101   1.750   3.176
 1130MeO     HB 6777   2.224   1.688   3.065
 1130MeO     HC 6778   2.076   1.596   3.094
 1130MeO      O 6779   2.053   1.763   2.976
 1130MeO      H 6780   1.960   1.768   2.998
 1131MeO      C 6781   2.166   1.794   2.648
 1131MeO     HA 6782   2.231   1.872   2.687
 1131MeO     HB 6783   2.066   1.835   2.636
 1131MeO     HC 6784   2.203   1.764   2.550
 1131MeO      O 6785   2.163   1.684   2.736
 1131MeO      H 6786   2.127   1.715   2.819
 1132MeO      C 6787   0.547   1.011   1.099
 1132MeO     HA 6788   0.470   1.061   1.157
 1132MeO     HB 6789   0.568   1.069   1.009
 1132MeO     HC 6790   0.638   1.007   1.159
 1132MeO      O 6791   0.506   0.881   1.065
 1132MeO      H 6792   0.486   0.835   1.148
 1133MeO      C 6793   4.815   2.550   0.419
 1133MeO     HA 6794   4.822   2.586   0.317
 1133MeO     HB 6795   4.757   2.621   0.478
 1133MeO     HC 6796   4.916   2.545   0.461
 1133MeO      O 6797   4.755   2.422   0.423
 1133MeO      H 6798   4.755   2.394   0.515
 1134MeO      C 6799   0.839   2.763   4.500
 1134MeO     HA 6800   0.881   2.664   4.518
 1134MeO     HB 6801   0.790   2.797   4.591
 1134MeO     HC 6802   0.763   2.754   4.422
 1134MeO      O 6803   0.940   2.853   4.460
 1134MeO      H 6804   0.981   2.813   4.382
 1135MeO      C 6805   3.428   4.563   0.976
 1135MeO     HA 6806   3.375   4.554   1.071
 1135MeO     HB 6807   3.521   4.618   0.993
 1135MeO     HC 6808   3.366   4.621   0.907
 1135MeO      O 6809   3.455   4.435   0.923
 1135MeO      H 6810   3.370   4.391   0.911
 1136MeO      C 6811   3.263   1.517   0.142
 1136MeO     HA 6812   3.265   1.408   0.143
 1136MeO     HB 6813   3.257   1.550   0.038
 1136MeO     HC 6814   3.356   1.554   0.185
 1136MeO      O 6815   3.152   1.565   0.215
 1136MeO      H 6816   3.073   1.528   0.176
 1137MeO      C 6817   0.428   1.369   2.133
 1137MeO     HA 6818   0.495   1.283   2.118
 1137MeO     HB 6819   0.422   1.424   2.039
 1137MeO     HC 6820   0.472   1.434   2.208
 1137MeO      O 6821   0.300   1.326   2.173
 1137MeO      H 6822   0.247   1.407   2.183
 1138MeO      C 6823   1.243   3.817   0.014
 1138MeO     HA 6824   1.325   3.748   4.924
 1138MeO     HB 6825   1.174   3.774   0.087
 1138MeO     HC 6826   1.283   3.909   0.057
 1138MeO      O 6827   1.175   3.844   4.819
 1138MeO      H 6828   1.102   3.903   4.841
 1139MeO      C 6829   1.625   1.393   1.720
 1139MeO     HA 6830   1.571   1.299   1.728
 1139MeO     HB 6831   1.581   1.450   1.638
 1139MeO     HC 6832   1.729   1.373   1.697
 1139MeO      O 6833   1.615   1.466   1.841
 1139MeO      H 6834   1.521   1.470   1.863
 1140MeO      C 6835   2.986   1.291   4.009
 1140MeO     HA 6836   3.080   1.269   3.959
 1140MeO     HB 6837   2.978   1.399   4.022
 1140MeO     HC 6838   2.987   1.245   4.108
 1140MeO      O 6839   2.877   1.242   3.934
 1140MeO      H 6840   2.885   1.146   3.932
 1141MeO      C 6841   0.222   1.348   4.122
 1141MeO     HA 6842   0.236   1.287   4.032
 1141MeO     HB 6843   0.186   1.282   4.201
 1141MeO     HC 6844   0.145   1.422   4.102
 1141MeO      O 6845   0.344   1.409   4.159
 1141MeO      H 6846   0.409   1.338   4.167
 1142MeO      C 6847   1.473   3.920   2.618
 1142MeO     HA 6848   1.557   3.962   2.563
 1142MeO     HB 6849   1.381   3.962   2.577
 1142MeO     HC 6850   1.471   3.812   2.603
 1142MeO      O 6851   1.484   3.951   2.755
 1142MeO      H 6852   1.476   4.047   2.763
 1143MeO      C 6853   4.232   2.026   4.127
 1143MeO     HA 6854   4.205   1.968   4.039
 1143MeO     HB 6855   4.159   2.004   4.206
 1143MeO     HC 6856   4.330   1.994   4.161
 1143MeO      O 6857   4.231   2.164   4.098
 1143MeO      H 6858   4.256   2.211   4.179
 1144MeO      C 6859   1.628   1.856   0.771
 1144MeO     HA 6860   1.656   1.858   0.666
 1144MeO     HB 6861   1.545   1.786   0.784
 1144MeO     HC 6862   1.594   1.955   0.799
 1144MeO      O 6863   1.736   1.817   0.852
 1144MeO      H 6864   1.704   1.823   0.943
 1145MeO      C 6865   1.521   2.744   3.935
 1145MeO     HA 6866   1.492   2.814   3.857
 1145MeO     HB 6867   1.563   2.800   4.019
 1145MeO     HC 6868   1.598   2.678   3.896
 1145MeO      O 6869   1.409   2.669   3.978
 1145MeO      H 6870   1.439   2.609   4.046
 1146MeO      C 6871   2.486   1.914   1.131
 1146MeO     HA 6872   2.404   1.944   1.197
 1146MeO     HB 6873   2.574   1.972   1.158
 1146MeO     HC 6874   2.507   1.808   1.148
 1146MeO      O 6875   2.450   1.938   0.997
 1146MeO      H 6876   2.430   2.032   0.990
 1147MeO      C 6877   4.194   3.023   0.950
 1147MeO     HA 6878   4.141   2.940   0.997
 1147MeO     HB 6879   4.167   3.114   1.003
 1147MeO     HC 6880   4.161   3.031   0.847
 1147MeO      O 6881   4.333   3.002   0.955
 1147MeO      H 6882   4.374   3.079   0.915
 1148MeO      C 6883   1.429   2.822   2.968
 1148MeO     HA 6884   1.322   2.837   2.958
 1148MeO     HB 6885   1.471   2.910   3.017
 1148MeO     HC 6886   1.447   2.735   3.031
 1148MeO      O 6887   1.488   2.805   2.841
 1148MeO      H 6888   1.473   2.887   2.792
 1149MeO      C 6889   3.216   2.228   1.148
 1149MeO     HA 6890   3.215   2.203   1.042
 1149MeO     HB 6891   3.308   2.191   1.192
 1149MeO     HC 6892   3.215   2.337   1.157
 1149MeO      O 6893   3.103   2.173   1.213
 1149MeO      H 6894   3.026   2.212   1.171
 1150MeO      C 6895   4.496   3.625   3.244
 1150MeO     HA 6896   4.414   3.621   3.316
 1150MeO     HB 6897   4.475   3.702   3.171
 1150MeO     HC 6898   4.587   3.652   3.296
 1150MeO      O 6899   4.512   3.501   3.178
 1150MeO      H 6900   4.578   3.518   3.109
 1151MeO      C 6901   2.737   4.142   1.299
 1151MeO     HA 6902   2.782   4.186   1.389
 1151MeO     HB 6903   2.702   4.223   1.235
 1151MeO     HC 6904   2.651   4.082   1.329
 1151MeO      O 6905   2.831   4.063   1.231
 1151MeO      H 6906   2.785   4.025   1.155
 1152MeO      C 6907   0.960   4.094   1.761
 1152MeO     HA 6908   0.969   4.191   1.714
 1152MeO     HB 6909   0.865   4.049   1.731
 1152MeO     HC 6910   1.041   4.030   1.726
 1152MeO      O 6911   0.964   4.107   1.902
 1152MeO      H 6912   0.895   4.170   1.926
 1153MeO      C 6913   2.256   3.764   4.540
 1153MeO     HA 6914   2.260   3.824   4.630
 1153MeO     HB 6915   2.266   3.659   4.568
 1153MeO     HC 6916   2.159   3.778   4.493
 1153MeO      O 6917   2.359   3.801   4.451
 1153MeO      H 6918   2.353   3.744   4.374
 1154MeO      C 6919   2.538   2.549   1.926
 1154MeO     HA 6920   2.592   2.641   1.903
 1154MeO     HB 6921   2.601   2.464   1.898
 1154MeO     HC 6922   2.522   2.545   2.034
 1154MeO      O 6923   2.415   2.544   1.858
 1154MeO      H 6924   2.369   2.467   1.892
 1155MeO      C 6925   1.810   4.743   2.851
 1155MeO     HA 6926   1.871   4.781   2.769
 1155MeO     HB 6927   1.875   4.725   2.937
 1155MeO     HC 6928   1.738   4.820   2.879
 1155MeO      O 6929   1.743   4.624   2.815
 1155MeO      H 6930   1.691   4.597   2.892
 1156MeO      C 6931   1.398   3.664   1.486
 1156MeO     HA 6932   1.431   3.662   1.382
 1156MeO     HB 6933   1.389   3.768   1.517
 1156MeO     HC 6934   1.300   3.617   1.492
 1156MeO      O 6935   1.491   3.595   1.567
 1156MeO      H 6936   1.575   3.643   1.563
 1157MeO      C 6937   0.501   2.994   0.824
 1157MeO     HA 6938   0.463   2.919   0.754
 1157MeO     HB 6939   0.417   3.056   0.856
 1157MeO     HC 6940   0.572   3.058   0.771
 1157MeO      O 6941   0.562   2.932   0.934
 1157MeO      H 6942   0.495   2.877   0.977
 1158MeO      C 6943   3.938   4.141   2.448
 1158MeO     HA 6944   3.980   4.045   2.477
 1158MeO     HB 6945   3.967   4.215   2.524
 1158MeO     HC 6946   3.829   4.133   2.447
 1158MeO      O 6947   3.987   4.180   2.322
 1158MeO      H 6948   4.082   4.187   2.329
 1159MeO      C 6949   3.289   0.335   2.069
 1159MeO     HA 6950   3.264   0.255   2.139
 1159MeO     HB 6951   3.347   0.293   1.987
 1159MeO     HC 6952   3.196   0.375   2.029
 1159MeO      O 6953   3.360   0.438   2.135
 1159MeO      H 6954   3.305   0.465   2.209
 1160MeO      C 6955   4.759   2.314   3.526
 1160MeO     HA 6956   4.665   2.302   3.473
 1160MeO     HB 6957   4.780   2.420   3.537
 1160MeO     HC 6958   4.749   2.269   3.625
 1160MeO      O 6959   4.863   2.250   3.455
 1160MeO      H 6960   4.837   2.157   3.447
 1161MeO      C 6961   1.576   0.279   4.145
 1161MeO     HA 6962   1.511   0.362   4.116
 1161MeO     HB 6963   1.648   0.316   4.218
 1161MeO     HC 6964   1.630   0.244   4.057
 1161MeO      O 6965   1.500   0.174   4.202
 1161MeO      H 6966   1.458   0.211   4.282
 1162MeO      C 6967   0.175   4.019   2.475
 1162MeO     HA 6968   0.134   3.919   2.461
 1162MeO     HB 6969   0.275   4.011   2.517
 1162MeO     HC 6970   0.111   4.072   2.545
 1162MeO      O 6971   0.178   4.088   2.351
 1162MeO      H 6972   0.088   4.089   2.318
 1163MeO      C 6973   3.995   4.285   4.341
 1163MeO     HA 6974   3.920   4.359   4.368
 1163MeO     HB 6975   4.085   4.337   4.307
 1163MeO     HC 6976   4.020   4.227   4.430
 1163MeO      O 6977   3.947   4.199   4.240
 1163MeO      H 6978   4.022   4.146   4.211
 1164MeO      C 6979   2.923   1.861   4.286
 1164MeO     HA 6980   2.836   1.901   4.235
 1164MeO     HB 6981   2.916   1.752   4.287
 1164MeO     HC 6982   3.012   1.889   4.230
 1164MeO      O 6983   2.931   1.911   4.418
 1164MeO      H 6984   2.940   2.007   4.410
 1165MeO      C 6985   0.763   1.872   0.933
 1165MeO     HA 6986   0.761   1.765   0.950
 1165MeO     HB 6987   0.693   1.920   1.001
 1165MeO     HC 6988   0.730   1.891   0.830
 1165MeO      O 6989   0.894   1.922   0.953
 1165MeO      H 6990   0.918   1.900   1.044
 1166MeO      C 6991   0.676   4.866   4.486
 1166MeO     HA 6992   0.756   4.882   4.414
 1166MeO     HB 6993   0.596   4.810   4.438
 1166MeO     HC 6994   0.715   4.805   4.568
 1166MeO      O 6995   0.627   0.063   4.535
 1166MeO      H 6996   0.557   0.042   4.599
 1167MeO      C 6997   1.890   3.462   3.132
 1167MeO     HA 6998   1.925   3.435   3.232
 1167MeO     HB 6999   1.960   3.419   3.060
 1167MeO     HC 7000   1.792   3.417   3.117
 1167MeO      O 7001   1.885   3.602   3.118
 1167MeO      H 7002   1.975   3.634   3.136
 1168MeO      C 7003   3.132   4.195   1.421
 1168MeO     HA 7004   3.162   4.294   1.386
 1168MeO     HB 7005   3.081   4.144   1.340
 1168MeO     HC 7006   3.062   4.208   1.504
 1168MeO      O 7007   3.246   4.122   1.463
 1168MeO      H 7008   3.309   4.124   1.390
 1169MeO      C 7009   1.028   4.278   4.102
 1169MeO     HA 7010   1.059   4.199   4.034
 1169MeO     HB 7011   1.011   4.235   4.201
 1169MeO     HC 7012   0.934   4.320   4.066
 1169MeO      O 7013   1.127   4.379   4.109
 1169MeO      H 7014   1.138   4.412   4.019
 1170MeO      C 7015   3.301   1.045   3.453
 1170MeO     HA 7016   3.275   0.989   3.364
 1170MeO     HB 7017   3.305   1.151   3.428
 1170MeO     HC 7018   3.401   1.014   3.486
 1170MeO      O 7019   3.207   1.022   3.556
 1170MeO      H 7020   3.235   1.072   3.633
 1171MeO      C 7021   3.295   0.461   0.700
 1171MeO     HA 7022   3.292   0.356   0.670
 1171MeO     HB 7023   3.325   0.466   0.805
 1171MeO     HC 7024   3.195   0.503   0.689
 1171MeO      O 7025   3.387   0.531   0.619
 1171MeO      H 7026   3.355   0.524   0.528
 1172MeO      C 7027   1.709   3.193   4.641
 1172MeO     HA 7028   1.772   3.105   4.658
 1172MeO     HB 7029   1.699   3.246   4.736
 1172MeO     HC 7030   1.759   3.258   4.570
 1172MeO      O 7031   1.582   3.154   4.593
 1172MeO      H 7032   1.596   3.111   4.508
 1173MeO      C 7033   2.167   4.529   4.011
 1173MeO     HA 7034   2.111   4.475   4.088
 1173MeO     HB 7035   2.264   4.482   3.998
 1173MeO     HC 7036   2.183   4.631   4.047
 1173MeO      O 7037   2.096   4.532   3.889
 1173MeO      H 7038   2.150   4.583   3.828
 1174MeO      C 7039   4.521   3.221   3.396
 1174MeO     HA 7040   4.627   3.222   3.371
 1174MeO     HB 7041   4.468   3.169   3.316
 1174MeO     HC 7042   4.508   3.165   3.489
 1174MeO      O 7043   4.472   3.353   3.409
 1174MeO      H 7044   4.491   3.398   3.327
 1175MeO      C 7045   3.522   0.241   0.026
 1175MeO     HA 7046   3.617   0.186   0.022
 1175MeO     HB 7047   3.494   0.251   0.130
 1175MeO     HC 7048   3.446   0.181   4.900
 1175MeO      O 7049   3.536   0.367   4.889
 1175MeO      H 7050   3.552   0.350   4.796
 1176MeO      C 7051   4.348   4.684   0.496
 1176MeO     HA 7052   4.352   4.580   0.528
 1176MeO     HB 7053   4.377   4.747   0.581
 1176MeO     HC 7054   4.420   4.699   0.416
 1176MeO      O 7055   4.217   4.718   0.453
 1176MeO      H 7056   4.160   4.706   0.530
 1177MeO      C 7057   4.018   1.621   3.251
 1177MeO     HA 7058   3.991   1.726   3.240
 1177MeO     HB 7059   4.127   1.614   3.256
 1177MeO     HC 7060   3.976   1.584   3.345
 1177MeO      O 7061   3.968   1.545   3.143
 1177MeO      H 7062   3.872   1.554   3.144
 1178MeO      C 7063   4.288   4.075   4.473
 1178MeO     HA 7064   4.284   4.155   4.398
 1178MeO     HB 7065   4.254   3.983   4.427
 1178MeO     HC 7066   4.391   4.063   4.504
 1178MeO      O 7067   4.208   4.110   4.584
 1178MeO      H 7068   4.239   4.195   4.615
 1179MeO      C 7069   0.464   1.917   0.634
 1179MeO     HA 7070   0.381   1.947   0.571
 1179MeO     HB 7071   0.430   1.840   0.703
 1179MeO     HC 7072   0.542   1.875   0.571
 1179MeO      O 7073   0.514   2.029   0.705
 1179MeO      H 7074   0.537   2.096   0.640
 1180MeO      C 7075   1.964   2.113   0.997
 1180MeO     HA 7076   1.895   2.035   0.968
 1180MeO     HB 7077   1.934   2.207   0.950
 1180MeO     HC 7078   2.064   2.087   0.962
 1180MeO      O 7079   1.965   2.127   1.138
 1180MeO      H 7080   1.990   2.041   1.173
 1181MeO      C 7081   4.705   1.956   1.501
 1181MeO     HA 7082   4.599   1.977   1.508
 1181MeO     HB 7083   4.734   1.962   1.396
 1181MeO     HC 7084   4.723   1.854   1.536
 1181MeO      O 7085   4.779   2.049   1.577
 1181MeO      H 7086   4.758   2.136   1.541
 1182MeO      C 7087   0.650   3.671   3.501
 1182MeO     HA 7088   0.606   3.626   3.412
 1182MeO     HB 7089   0.715   3.599   3.549
 1182MeO     HC 7090   0.569   3.696   3.570
 1182MeO      O 7091   0.721   3.787   3.466
 1182MeO      H 7092   0.660   3.847   3.421
 1183MeO      C 7093   3.356   4.749   3.616
 1183MeO     HA 7094   3.284   4.698   3.680
 1183MeO     HB 7095   3.343   4.713   3.514
 1183MeO     HC 7096   3.335   4.856   3.618
 1183MeO      O 7097   3.488   4.724   3.660
 1183MeO      H 7098   3.546   4.773   3.600
 1184MeO      C 7099   0.344   2.515   4.072
 1184MeO     HA 7100   0.388   2.542   4.168
 1184MeO     HB 7101   0.253   2.458   4.091
 1184MeO     HC 7102   0.414   2.451   4.019
 1184MeO      O 7103   0.314   2.631   3.996
 1184MeO      H 7104   0.291   2.599   3.908
 1185MeO      C 7105   0.872   2.459   0.241
 1185MeO     HA 7106   0.856   2.404   0.334
 1185MeO     HB 7107   0.921   2.553   0.264
 1185MeO     HC 7108   0.939   2.400   0.177
 1185MeO      O 7109   0.750   2.484   0.175
 1185MeO      H 7110   0.694   2.528   0.241
 1186MeO      C 7111   2.599   0.713   2.453
 1186MeO     HA 7112   2.523   0.750   2.384
 1186MeO     HB 7113   2.610   0.787   2.533
 1186MeO     HC 7114   2.694   0.704   2.400
 1186MeO      O 7115   2.560   0.589   2.507
 1186MeO      H 7116   2.476   0.605   2.553
 1187MeO      C 7117   0.591   0.786   4.583
 1187MeO     HA 7118   0.640   0.738   4.667
 1187MeO     HB 7119   0.566   0.888   4.611
 1187MeO     HC 7120   0.499   0.732   4.560
 1187MeO      O 7121   0.676   0.785   4.470
 1187MeO      H 7122   0.701   0.693   4.456
 1188MeO      C 7123   0.968   4.734   0.570
 1188MeO     HA 7124   0.875   4.740   0.515
 1188MeO     HB 7125   0.949   4.762   0.674
 1188MeO     HC 7126   1.038   4.806   0.527
 1188MeO      O 7127   1.023   4.604   0.562
 1188MeO      H 7128   1.041   4.588   0.468
 1189MeO      C 7129   3.272   3.580   1.827
 1189MeO     HA 7130   3.202   3.545   1.903
 1189MeO     HB 7131   3.373   3.559   1.861
 1189MeO     HC 7132   3.254   3.524   1.735
 1189MeO      O 7133   3.255   3.719   1.806
 1189MeO      H 7134   3.279   3.762   1.888
 1190MeO      C 7135   1.641   4.622   0.843
 1190MeO     HA 7136   1.682   4.649   0.745
 1190MeO     HB 7137   1.535   4.647   0.844
 1190MeO     HC 7138   1.652   4.515   0.857
 1190MeO      O 7139   1.709   4.692   0.946
 1190MeO      H 7140   1.662   4.676   1.028
 1191MeO      C 7141   2.206   4.896   2.391
 1191MeO     HA 7142   2.182   0.027   2.481
 1191MeO     HB 7143   2.143   4.807   2.389
 1191MeO     HC 7144   2.310   4.864   2.396
 1191MeO      O 7145   2.185   0.048   2.274
 1191MeO      H 7146   2.211   4.917   2.201
 1192MeO      C 7147   2.549   4.132   0.547
 1192MeO     HA 7148   2.652   4.122   0.514
 1192MeO     HB 7149   2.495   4.191   0.472
 1192MeO     HC 7150   2.504   4.033   0.553
 1192MeO      O 7151   2.545   4.197   0.672
 1192MeO      H 7152   2.585   4.284   0.660
 1193MeO      C 7153   0.657   2.167   2.195
 1193MeO     HA 7154   0.554   2.144   2.224
 1193MeO     HB 7155   0.661   2.269   2.156
 1193MeO     HC 7156   0.720   2.162   2.284
 1193MeO      O 7157   0.704   2.075   2.098
 1193MeO      H 7158   0.795   2.100   2.078
 1194MeO      C 7159   3.902   0.002   0.527
 1194MeO     HA 7160   3.972   0.078   0.491
 1194MeO     HB 7161   3.929   4.832   0.482
 1194MeO     HC 7162   3.912   4.920   0.635
 1194MeO      O 7163   3.769   0.036   0.494
 1194MeO      H 7164   3.714   4.886   0.518
 1195MeO      C 7165   3.910   4.436   1.616
 1195MeO     HA 7166   3.948   4.441   1.514
 1195MeO     HB 7167   3.965   4.507   1.677
 1195MeO     HC 7168   3.929   4.336   1.654
 1195MeO      O 7169   3.772   4.465   1.617
 1195MeO      H 7170   3.728   4.398   1.564
 1196MeO      C 7171   3.877   3.756   3.644
 1196MeO     HA 7172   3.830   3.834   3.705
 1196MeO     HB 7173   3.814   3.667   3.646
 1196MeO     HC 7174   3.973   3.731   3.688
 1196MeO      O 7175   3.894   3.800   3.511
 1196MeO      H 7176   3.937   3.728   3.464
 1197MeO      C 7177   4.329   4.920   2.387
 1197MeO     HA 7178   4.250   4.886   2.455
 1197MeO     HB 7179   4.404   4.841   2.379
 1197MeO     HC 7180   4.376   0.083   2.430
 1197MeO      O 7181   4.274   0.024   2.260
 1197MeO      H 7182   4.234   4.867   2.228
 1198MeO      C 7183   0.706   2.567   3.383
 1198MeO     HA 7184   0.770   2.559   3.471
 1198MeO     HB 7185   0.643   2.478   3.378
 1198MeO     HC 7186   0.769   2.571   3.294
 1198MeO      O 7187   0.626   2.683   3.393
 1198MeO      H 7188   0.575   2.675   3.474
 1199MeO      C 7189   0.608   3.215   2.180
 1199MeO     HA 7190   0.563   3.274   2.260
 1199MeO     HB 7191   0.709   3.251   2.162
 1199MeO     HC 7192   0.550   3.230   2.089
 1199MeO      O 7193   0.610   3.078   2.214
 1199MeO      H 7194   0.647   3.031   2.137
 1200MeO      C 7195   1.030   1.743   3.031
 1200MeO     HA 7196   1.037   1.723   3.138
 1200MeO     HB 7197   1.130   1.740   2.989
 1200MeO     HC 7198   0.970   1.665   2.986
 1200MeO      O 7199   0.972   1.871   3.009
 1200MeO      H 7200   1.031   1.934   3.052
 1201MeO      C 7201   4.910   0.321   0.049
 1201MeO     HA 7202   4.916   0.427   0.028
 1201MeO     HB 7203   4.818   0.282   0.005
 1201MeO     HC 7204   0.069   0.271   0.001
 1201MeO      O 7205   4.912   0.298   0.188
 1201MeO      H 7206   4.897   0.204   0.202
 1202MeO      C 7207   4.132   0.900   3.207
 1202MeO     HA 7208   4.221   0.869   3.152
 1202MeO     HB 7209   4.067   0.956   3.140
 1202MeO     HC 7210   4.163   0.966   3.288
 1202MeO      O 7211   4.064   0.788   3.259
 1202MeO      H 7212   3.991   0.822   3.311
 1203MeO      C 7213   2.080   0.520   3.037
 1203MeO     HA 7214   2.099   0.421   2.996
 1203MeO     HB 7215   2.174   0.574   3.042
 1203MeO     HC 7216   2.041   0.510   3.138
 1203MeO      O 7217   1.987   0.590   2.957
 1203MeO      H 7218   1.979   0.678   2.994
 1204MeO      C 7219   0.232   0.899   1.828
 1204MeO     HA 7220   0.138   0.863   1.868
 1204MeO     HB 7221   0.313   0.843   1.876
 1204MeO     HC 7222   0.235   0.880   1.721
 1204MeO      O 7223   0.247   1.037   1.855
 1204MeO      H 7224   0.256   1.045   1.950
 1205MeO      C 7225   2.953   3.071   1.219
 1205MeO     HA 7226   2.983   3.108   1.121
 1205MeO     HB 7227   2.919   3.156   1.279
 1205MeO     HC 7228   2.870   3.002   1.207
 1205MeO      O 7229   3.060   3.006   1.284
 1205MeO      H 7230   3.027   2.982   1.372
 1206MeO      C 7231   0.745   2.646   0.900
 1206MeO     HA 7232   0.724   2.715   0.818
 1206MeO     HB 7233   0.846   2.664   0.935
 1206MeO     HC 7234   0.675   2.668   0.981
 1206MeO      O 7235   0.730   2.512   0.858
 1206MeO      H 7236   0.748   2.458   0.936
 1207MeO      C 7237   3.908   0.514   1.180
 1207MeO     HA 7238   3.889   0.410   1.202
 1207MeO     HB 7239   4.009   0.538   1.215
 1207MeO     HC 7240   3.905   0.528   1.072
 1207MeO      O 7241   3.813   0.597   1.244
 1207MeO      H 7242   3.814   0.574   1.337
 1208MeO      C 7243   0.258   2.735   1.103
 1208MeO     HA 7244   0.207   2.725   1.007
 1208MeO     HB 7245   0.258   2.639   1.153
 1208MeO     HC 7246   0.202   2.806   1.164
 1208MeO      O 7247   0.390   2.781   1.085
 1208MeO      H 7248   0.428   2.789   1.174
 1209MeO      C 7249   3.241   4.056   3.423
 1209MeO     HA 7250   3.240   4.114   3.515
 1209MeO     HB 7251   3.335   4.074   3.370
 1209MeO     HC 7252   3.237   3.950   3.448
 1209MeO      O 7253   3.132   4.091   3.340
 1209MeO      H 7254   3.141   4.037   3.260
 1210MeO      C 7255   0.010   4.137   3.572
 1210MeO     HA 7256   4.866   4.053   3.563
 1210MeO     HB 7257   0.015   4.188   3.476
 1210MeO     HC 7258   4.896   4.205   3.647
 1210MeO      O 7259   0.137   4.090   3.610
 1210MeO      H 7260   0.125   4.041   3.692
 1211MeO      C 7261   2.078   0.835   0.097
 1211MeO     HA 7262   2.086   0.883   0.194
 1211MeO     HB 7263   2.117   0.904   0.022
 1211MeO     HC 7264   2.139   0.745   0.096
 1211MeO      O 7265   1.943   0.805   0.069
 1211MeO      H 7266   1.896   0.889   0.071
 1212MeO      C 7267   1.479   4.453   3.967
 1212MeO     HA 7268   1.404   4.452   4.047
 1212MeO     HB 7269   1.499   4.350   3.939
 1212MeO     HC 7270   1.570   4.498   4.006
 1212MeO      O 7271   1.432   4.526   3.856
 1212MeO      H 7272   1.500   4.521   3.788
 1213MeO      C 7273   1.311   2.606   0.773
 1213MeO     HA 7274   1.245   2.639   0.853
 1213MeO     HB 7275   1.385   2.684   0.755
 1213MeO     HC 7276   1.252   2.593   0.683
 1213MeO      O 7277   1.374   2.485   0.808
 1213MeO      H 7278   1.305   2.421   0.825
 1214MeO      C 7279   3.791   2.766   0.102
 1214MeO     HA 7280   3.802   2.758   4.919
 1214MeO     HB 7281   3.835   2.677   0.147
 1214MeO     HC 7282   3.847   2.853   0.136
 1214MeO      O 7283   3.655   2.778   0.137
 1214MeO      H 7284   3.650   2.789   0.233
 1215MeO      C 7285   3.159   2.965   3.449
 1215MeO     HA 7286   3.246   2.992   3.389
 1215MeO     HB 7287   3.074   2.948   3.382
 1215MeO     HC 7288   3.180   2.871   3.501
 1215MeO      O 7289   3.129   3.067   3.541
 1215MeO      H 7290   3.051   3.037   3.591
 1216MeO      C 7291   3.483   4.423   1.888
 1216MeO     HA 7292   3.519   4.327   1.925
 1216MeO     HB 7293   3.505   4.499   1.963
 1216MeO     HC 7294   3.538   4.448   1.797
 1216MeO      O 7295   3.345   4.416   1.862
 1216MeO      H 7296   3.331   4.340   1.805
 1217MeO      C 7297   3.005   0.963   3.813
 1217MeO     HA 7298   3.024   1.058   3.764
 1217MeO     HB 7299   3.087   0.943   3.882
 1217MeO     HC 7300   3.004   0.885   3.736
 1217MeO      O 7301   2.882   0.966   3.881
 1217MeO      H 7302   2.813   0.978   3.814
 1218MeO      C 7303   2.991   1.210   4.801
 1218MeO     HA 7304   3.014   1.111   4.762
 1218MeO     HB 7305   2.888   1.235   4.777
 1218MeO     HC 7306   3.056   1.283   4.753
 1218MeO      O 7307   3.011   1.213   0.016
 1218MeO      H 7308   2.979   1.298   0.047
 1219MeO      C 7309   3.237   4.340   2.560
 1219MeO     HA 7310   3.174   4.365   2.645
 1219MeO     HB 7311   3.269   4.432   2.511
 1219MeO     HC 7312   3.326   4.288   2.596
 1219MeO      O 7313   3.168   4.258   2.468
 1219MeO      H 7314   3.228   4.237   2.397
 1220MeO      C 7315   0.454   3.579   2.918
 1220MeO     HA 7316   0.386   3.619   2.842
 1220MeO     HB 7317   0.397   3.517   2.986
 1220MeO     HC 7318   0.528   3.517   2.868
 1220MeO      O 7319   0.517   3.684   2.988
 1220MeO      H 7320   0.581   3.642   3.047
 1221MeO      C 7321   1.700   3.951   0.971
 1221MeO     HA 7322   1.693   3.918   1.074
 1221MeO     HB 7323   1.691   3.864   0.906
 1221MeO     HC 7324   1.617   4.019   0.951
 1221MeO      O 7325   1.823   4.017   0.948
 1221MeO      H 7326   1.825   4.093   1.008
 1222MeO      C 7327   0.360   1.122   2.867
 1222MeO     HA 7328   0.284   1.089   2.796
 1222MeO     HB 7329   0.315   1.130   2.966
 1222MeO     HC 7330   0.439   1.046   2.871
 1222MeO      O 7331   0.414   1.246   2.827
 1222MeO      H 7332   0.452   1.233   2.740
 1223MeO      C 7333   1.567   4.660   3.126
 1223MeO     HA 7334   1.566   4.754   3.072
 1223MeO     HB 7335   1.468   4.643   3.168
 1223MeO     HC 7336   1.639   4.666   3.207
 1223MeO      O 7337   1.601   4.553   3.040
 1223MeO      H 7338   1.597   4.473   3.093
 1224MeO      C 7339   0.235   1.356   1.750
 1224MeO     HA 7340   0.342   1.354   1.767
 1224MeO     HB 7341   0.210   1.447   1.695
 1224MeO     HC 7342   0.184   1.359   1.846
 1224MeO      O 7343   0.194   1.242   1.677
 1224MeO      H 7344   0.214   1.166   1.733
 1225MeO      C 7345   3.259   2.418   1.498
 1225MeO     HA 7346   3.197   2.405   1.409
 1225MeO     HB 7347   3.256   2.326   1.555
 1225MeO     HC 7348   3.361   2.437   1.466
 1225MeO      O 7349   3.210   2.526   1.575
 1225MeO      H 7350   3.272   2.538   1.649
 1226MeO      C 7351   3.159   3.595   0.344
 1226MeO     HA 7352   3.105   3.552   0.428
 1226MeO     HB 7353   3.091   3.606   0.260
 1226MeO     HC 7354   3.239   3.526   0.315
 1226MeO      O 7355   3.214   3.721   0.379
 1226MeO      H 7356   3.261   3.753   0.301
 1227MeO      C 7357   3.471   0.397   4.560
 1227MeO     HA 7358   3.462   0.367   4.455
 1227MeO     HB 7359   3.487   0.505   4.563
 1227MeO     HC 7360   3.378   0.374   4.611
 1227MeO      O 7361   3.579   0.330   4.620
 1227MeO      H 7362   3.658   0.354   4.570
 1228MeO      C 7363   1.399   2.458   2.853
 1228MeO     HA 7364   1.471   2.485   2.776
 1228MeO     HB 7365   1.454   2.424   2.941
 1228MeO     HC 7366   1.341   2.547   2.880
 1228MeO      O 7367   1.314   2.356   2.807
 1228MeO      H 7368   1.370   2.282   2.781
 1229MeO      C 7369   1.283   2.850   1.517
 1229MeO     HA 7370   1.324   2.760   1.469
 1229MeO     HB 7371   1.264   2.924   1.440
 1229MeO     HC 7372   1.358   2.889   1.585
 1229MeO      O 7373   1.165   2.819   1.587
 1229MeO      H 7374   1.187   2.751   1.652
 1230MeO      C 7375   3.889   4.906   2.475
 1230MeO     HA 7376   3.960   0.016   2.401
 1230MeO     HB 7377   3.837   0.066   2.517
 1230MeO     HC 7378   3.816   4.841   2.426
 1230MeO      O 7379   3.957   4.835   2.577
 1230MeO      H 7380   4.013   4.900   2.622
 1231MeO      C 7381   4.740   1.684   2.553
 1231MeO     HA 7382   4.732   1.692   2.661
 1231MeO     HB 7383   4.653   1.729   2.508
 1231MeO     HC 7384   4.829   1.739   2.521
 1231MeO      O 7385   4.752   1.548   2.515
 1231MeO      H 7386   4.834   1.516   2.553
 1232MeO      C 7387   0.357   0.266   1.905
 1232MeO     HA 7388   0.260   0.260   1.955
 1232MeO     HB 7389   0.425   0.196   1.954
 1232MeO     HC 7390   0.344   0.235   1.801
 1232MeO      O 7391   0.407   0.397   1.913
 1232MeO      H 7392   0.414   0.419   2.006
 1233MeO      C 7393   2.716   2.646   1.331
 1233MeO     HA 7394   2.740   2.648   1.437
 1233MeO     HB 7395   2.780   2.571   1.283
 1233MeO     HC 7396   2.741   2.743   1.287
 1233MeO      O 7397   2.580   2.615   1.311
 1233MeO      H 7398   2.566   2.527   1.348
 1234MeO      C 7399   2.559   0.006   3.871
 1234MeO     HA 7400   2.654   4.883   3.849
 1234MeO     HB 7401   2.569   0.059   3.966
 1234MeO     HC 7402   2.539   0.079   3.792
 1234MeO      O 7403   2.455   4.836   3.879
 1234MeO      H 7404   2.483   4.772   3.945
 1235MeO      C 7405   1.020   3.581   1.198
 1235MeO     HA 7406   0.959   3.654   1.249
 1235MeO     HB 7407   1.004   3.591   1.090
 1235MeO     HC 7408   1.125   3.602   1.218
 1235MeO      O 7409   0.987   3.450   1.240
 1235MeO      H 7410   1.043   3.389   1.189
 1236MeO      C 7411   0.999   4.726   4.272
 1236MeO     HA 7412   1.081   4.689   4.210
 1236MeO     HB 7413   0.962   4.644   4.333
 1236MeO     HC 7414   0.918   4.759   4.207
 1236MeO      O 7415   1.043   4.833   4.353
 1236MeO      H 7416   1.068   4.904   4.293
 1237MeO      C 7417   1.163   4.386   3.733
 1237MeO     HA 7418   1.239   4.309   3.742
 1237MeO     HB 7419   1.066   4.338   3.720
 1237MeO     HC 7420   1.184   4.445   3.643
 1237MeO      O 7421   1.164   4.470   3.847
 1237MeO      H 7422   1.254   4.504   3.852
 1238MeO      C 7423   0.363   1.405   0.615
 1238MeO     HA 7424   0.350   1.362   0.516
 1238MeO     HB 7425   0.294   1.355   0.684
 1238MeO     HC 7426   0.465   1.386   0.649
 1238MeO      O 7427   0.337   1.544   0.613
 1238MeO      H 7428   0.346   1.576   0.704
 1239MeO      C 7429   4.349   1.682   2.547
 1239MeO     HA 7430   4.410   1.593   2.539
 1239MeO     HB 7431   4.363   1.724   2.647
 1239MeO     HC 7432   4.244   1.655   2.535
 1239MeO      O 7433   4.387   1.776   2.449
 1239MeO      H 7434   4.354   1.744   2.365
 1240MeO      C 7435   4.028   0.210   3.661
 1240MeO     HA 7436   4.103   0.284   3.688
 1240MeO     HB 7437   4.033   0.127   3.732
 1240MeO     HC 7438   3.930   0.256   3.668
 1240MeO      O 7439   4.051   0.164   3.529
 1240MeO      H 7440   4.051   0.242   3.473
 1241MeO      C 7441   1.347   1.579   3.900
 1241MeO     HA 7442   1.445   1.542   3.929
 1241MeO     HB 7443   1.361   1.671   3.843
 1241MeO     HC 7444   1.299   1.506   3.836
 1241MeO      O 7445   1.269   1.604   4.015
 1241MeO      H 7446   1.319   1.665   4.071
 1242MeO      C 7447   3.772   3.780   0.659
 1242MeO     HA 7448   3.875   3.767   0.690
 1242MeO     HB 7449   3.762   3.877   0.611
 1242MeO     HC 7450   3.709   3.780   0.749
 1242MeO      O 7451   3.731   3.678   0.571
 1242MeO      H 7452   3.637   3.690   0.555
 1243MeO      C 7453   2.253   2.338   0.062
 1243MeO     HA 7454   2.223   2.421   0.126
 1243MeO     HB 7455   2.271   2.376   4.887
 1243MeO     HC 7456   2.172   2.266   0.058
 1243MeO      O 7457   2.370   2.277   0.113
 1243MeO      H 7458   2.347   2.245   0.202
 1244MeO      C 7459   1.439   3.487   1.918
 1244MeO     HA 7460   1.355   3.526   1.860
 1244MeO     HB 7461   1.529   3.538   1.887
 1244MeO     HC 7462   1.421   3.508   2.024
 1244MeO      O 7463   1.452   3.347   1.897
 1244MeO      H 7464   1.468   3.336   1.802
 1245MeO      C 7465   0.787   1.166   0.827
 1245MeO     HA 7466   0.770   1.058   0.833
 1245MeO     HB 7467   0.881   1.184   0.775
 1245MeO     HC 7468   0.795   1.206   0.928
 1245MeO      O 7469   0.680   1.228   0.758
 1245MeO      H 7470   0.703   1.321   0.749
 1246MeO      C 7471   3.121   1.745   4.656
 1246MeO     HA 7472   3.196   1.814   4.616
 1246MeO     HB 7473   3.060   1.799   4.727
 1246MeO     HC 7474   3.173   1.664   4.707
 1246MeO      O 7475   3.042   1.695   4.550
 1246MeO      H 7476   3.003   1.772   4.506
 1247MeO      C 7477   4.614   0.341   1.070
 1247MeO     HA 7478   4.697   0.272   1.054
 1247MeO     HB 7479   4.521   0.286   1.057
 1247MeO     HC 7480   4.619   0.377   1.173
 1247MeO      O 7481   4.620   0.448   0.978
 1247MeO      H 7482   4.620   0.409   0.890
 1248MeO      C 7483   4.656   1.510   4.449
 1248MeO     HA 7484   4.631   1.607   4.406
 1248MeO     HB 7485   4.606   1.433   4.391
 1248MeO     HC 7486   4.763   1.496   4.442
 1248MeO      O 7487   4.615   1.505   4.584
 1248MeO      H 7488   4.664   1.573   4.631
 1249MeO      C 7489   0.352   4.249   2.804
 1249MeO     HA 7490   0.252   4.208   2.825
 1249MeO     HB 7491   0.347   4.357   2.810
 1249MeO     HC 7492   0.380   4.220   2.703
 1249MeO      O 7493   0.445   4.198   2.897
 1249MeO      H 7494   0.445   4.103   2.889
 1250MeO      C 7495   1.405   3.854   1.806
 1250MeO     HA 7496   1.377   3.949   1.762
 1250MeO     HB 7497   1.506   3.828   1.773
 1250MeO     HC 7498   1.336   3.778   1.769
 1250MeO      O 7499   1.399   3.860   1.947
 1250MeO      H 7500   1.308   3.880   1.969
 1251MeO      C 7501   2.149   2.758   3.991
 1251MeO     HA 7502   2.131   2.736   4.096
 1251MeO     HB 7503   2.151   2.866   3.978
 1251MeO     HC 7504   2.066   2.719   3.932
 1251MeO      O 7505   2.270   2.701   3.947
 1251MeO      H 7506   2.276   2.722   3.853
 1252MeO      C 7507   2.206   2.961   2.825
 1252MeO     HA 7508   2.288   2.986   2.758
 1252MeO     HB 7509   2.114   3.005   2.786
 1252MeO     HC 7510   2.194   2.853   2.827
 1252MeO      O 7511   2.231   3.010   2.956
 1252MeO      H 7512   2.156   2.982   3.009
 1253MeO      C 7513   0.946   0.947   1.311
 1253MeO     HA 7514   1.007   0.895   1.386
 1253MeO     HB 7515   1.006   1.028   1.269
 1253MeO     HC 7516   0.923   0.876   1.232
 1253MeO      O 7517   0.827   0.995   1.370
 1253MeO      H 7518   0.781   0.917   1.403
 1254MeO      C 7519   4.658   4.740   3.649
 1254MeO     HA 7520   4.701   4.664   3.714
 1254MeO     HB 7521   4.591   4.692   3.578
 1254MeO     HC 7522   4.738   4.789   3.594
 1254MeO      O 7523   4.587   4.836   3.725
 1254MeO      H 7524   4.559   4.905   3.664
 1255MeO      C 7525   0.852   3.764   4.623
 1255MeO     HA 7526   0.884   3.785   4.725
 1255MeO     HB 7527   0.892   3.667   4.593
 1255MeO     HC 7528   0.743   3.759   4.621
 1255MeO      O 7529   0.897   3.865   4.535
 1255MeO      H 7530   0.861   3.845   4.448
 1256MeO      C 7531   1.468   2.339   3.884
 1256MeO     HA 7532   1.542   2.415   3.861
 1256MeO     HB 7533   1.378   2.387   3.922
 1256MeO     HC 7534   1.508   2.275   3.964
 1256MeO      O 7535   1.437   2.261   3.771
 1256MeO      H 7536   1.366   2.201   3.797
 1257MeO      C 7537   1.118   3.691   4.330
 1257MeO     HA 7538   1.079   3.627   4.409
 1257MeO     HB 7539   1.078   3.791   4.344
 1257MeO     HC 7540   1.082   3.653   4.234
 1257MeO      O 7541   1.259   3.695   4.334
 1257MeO      H 7542   1.283   3.725   4.422
 1258MeO      C 7543   1.559   3.280   2.213
 1258MeO     HA 7544   1.593   3.229   2.303
 1258MeO     HB 7545   1.610   3.376   2.206
 1258MeO     HC 7546   1.452   3.300   2.223
 1258MeO      O 7547   1.583   3.203   2.098
 1258MeO      H 7548   1.541   3.249   2.025
 1259MeO      C 7549   4.925   1.075   0.060
 1259MeO     HA 7550   4.819   1.053   0.068
 1259MeO     HB 7551   0.037   1.102   0.158
 1259MeO     HC 7552   0.011   1.160   4.918
 1259MeO      O 7553   0.067   0.962   0.008
 1259MeO      H 7554   0.028   0.946   4.847
 1260MeO      C 7555   0.916   3.250   3.538
 1260MeO     HA 7556   0.816   3.211   3.553
 1260MeO     HB 7557   0.970   3.183   3.472
 1260MeO     HC 7558   0.968   3.252   3.634
 1260MeO      O 7559   0.910   3.380   3.481
 1260MeO      H 7560   0.867   3.369   3.396
 1261MeO      C 7561   2.113   4.020   3.068
 1261MeO     HA 7562   2.176   3.943   3.113
 1261MeO     HB 7563   2.076   4.085   3.148
 1261MeO     HC 7564   2.027   3.973   3.021
 1261MeO      O 7565   2.186   4.096   2.974
 1261MeO      H 7566   2.127   4.164   2.940
 1262MeO      C 7567   4.778   0.185   3.379
 1262MeO     HA 7568   4.853   0.162   3.455
 1262MeO     HB 7569   4.711   0.262   3.417
 1262MeO     HC 7570   4.720   0.095   3.360
 1262MeO      O 7571   4.840   0.228   3.260
 1262MeO      H 7572   4.896   0.155   3.231
 1263MeO      C 7573   4.041   4.035   0.805
 1263MeO     HA 7574   3.998   4.107   0.875
 1263MeO     HB 7575   4.120   4.085   0.749
 1263MeO     HC 7576   3.963   4.004   0.735
 1263MeO      O 7577   4.093   3.923   0.874
 1263MeO      H 7578   4.018   3.880   0.916
 1264MeO      C 7579   1.955   0.814   1.129
 1264MeO     HA 7580   1.854   0.788   1.160
 1264MeO     HB 7581   2.025   0.752   1.184
 1264MeO     HC 7582   1.964   0.793   1.023
 1264MeO      O 7583   1.979   0.951   1.154
 1264MeO      H 7584   1.912   1.000   1.105
 1265MeO      C 7585   0.452   2.264   0.924
 1265MeO     HA 7586   0.374   2.288   0.852
 1265MeO     HB 7587   0.548   2.291   0.881
 1265MeO     HC 7588   0.437   2.323   1.015
 1265MeO      O 7589   0.449   2.126   0.953
 1265MeO      H 7590   0.470   2.080   0.870
 1266MeO      C 7591   0.354   4.878   1.405
 1266MeO     HA 7592   0.347   0.012   1.314
 1266MeO     HB 7593   0.254   4.839   1.428
 1266MeO     HC 7594   0.420   4.793   1.386
 1266MeO      O 7595   0.401   0.031   1.512
 1266MeO      H 7596   0.333   0.097   1.529
 1267MeO      C 7597   3.105   3.533   2.401
 1267MeO     HA 7598   3.108   3.478   2.496
 1267MeO     HB 7599   3.174   3.486   2.331
 1267MeO     HC 7600   3.138   3.635   2.420
 1267MeO      O 7601   2.973   3.533   2.349
 1267MeO      H 7602   2.919   3.581   2.414
 1268MeO      C 7603   3.678   0.891   2.390
 1268MeO     HA 7604   3.765   0.827   2.374
 1268MeO     HB 7605   3.678   0.971   2.316
 1268MeO     HC 7606   3.687   0.935   2.489
 1268MeO      O 7607   3.559   0.814   2.381
 1268MeO      H 7608   3.564   0.748   2.451
 1269MeO      C 7609   0.486   2.929   4.582
 1269MeO     HA 7610   0.583   2.919   4.533
 1269MeO     HB 7611   0.503   2.955   4.687
 1269MeO     HC 7612   0.435   2.833   4.578
 1269MeO      O 7613   0.409   3.029   4.519
 1269MeO      H 7614   0.329   3.041   4.570
 1270MeO      C 7615   4.678   1.439   2.880
 1270MeO     HA 7616   4.737   1.508   2.820
 1270MeO     HB 7617   4.673   1.477   2.981
 1270MeO     HC 7618   4.730   1.343   2.881
 1270MeO      O 7619   4.549   1.423   2.825
 1270MeO      H 7620   4.561   1.392   2.735
 1271MeO      C 7621   0.176   4.167   3.157
 1271MeO     HA 7622   0.272   4.199   3.196
 1271MeO     HB 7623   0.191   4.132   3.055
 1271MeO     HC 7624   0.139   4.084   3.217
 1271MeO      O 7625   0.084   4.274   3.159
 1271MeO      H 7626   0.125   4.348   3.113
 1272MeO      C 7627   3.225   3.178   1.991
 1272MeO     HA 7628   3.285   3.087   1.997
 1272MeO     HB 7629   3.150   3.165   1.913
 1272MeO     HC 7630   3.290   3.261   1.963
 1272MeO      O 7631   3.162   3.204   2.115
 1272MeO      H 7632   3.110   3.285   2.104
 1273MeO      C 7633   0.376   1.527   4.662
 1273MeO     HA 7634   0.299   1.537   4.586
 1273MeO     HB 7635   0.381   1.619   4.720
 1273MeO     HC 7636   0.472   1.511   4.612
 1273MeO      O 7637   0.346   1.417   4.746
 1273MeO      H 7638   0.347   1.338   4.691
 1274MeO      C 7639   3.005   0.539   3.213
 1274MeO     HA 7640   2.933   0.620   3.207
 1274MeO     HB 7641   3.086   0.559   3.143
 1274MeO     HC 7642   2.955   0.447   3.182
 1274MeO      O 7643   3.054   0.526   3.344
 1274MeO      H 7644   2.978   0.509   3.401
 1275MeO      C 7645   2.675   1.500   4.201
 1275MeO     HA 7646   2.687   1.466   4.098
 1275MeO     HB 7647   2.774   1.514   4.244
 1275MeO     HC 7648   2.622   1.424   4.257
 1275MeO      O 7649   2.604   1.622   4.203
 1275MeO      H 7650   2.520   1.606   4.158
 1276MeO      C 7651   2.681   1.581   2.598
 1276MeO     HA 7652   2.714   1.631   2.689
 1276MeO     HB 7653   2.580   1.614   2.576
 1276MeO     HC 7654   2.747   1.609   2.516
 1276MeO      O 7655   2.682   1.441   2.617
 1276MeO      H 7656   2.623   1.424   2.692
 1277MeO      C 7657   1.494   3.253   1.510
 1277MeO     HA 7658   1.492   3.147   1.534
 1277MeO     HB 7659   1.412   3.275   1.442
 1277MeO     HC 7660   1.588   3.276   1.461
 1277MeO      O 7661   1.481   3.330   1.628
 1277MeO      H 7662   1.482   3.423   1.601
 1278MeO      C 7663   0.636   1.240   4.079
 1278MeO     HA 7664   0.653   1.162   4.005
 1278MeO     HB 7665   0.614   1.334   4.027
 1278MeO     HC 7666   0.727   1.253   4.137
 1278MeO      O 7667   0.529   1.205   4.163
 1278MeO      H 7668   0.554   1.121   4.205
 1279MeO      C 7669   4.112   3.810   4.701
 1279MeO     HA 7670   4.070   3.710   4.710
 1279MeO     HB 7671   4.219   3.802   4.679
 1279MeO     HC 7672   4.100   3.862   4.796
 1279MeO      O 7673   4.048   3.883   4.597
 1279MeO      H 7674   4.094   3.967   4.591
 1280MeO      C 7675   2.339   2.304   3.154
 1280MeO     HA 7676   2.302   2.201   3.152
 1280MeO     HB 7677   2.345   2.341   3.052
 1280MeO     HC 7678   2.440   2.303   3.195
 1280MeO      O 7679   2.256   2.387   3.232
 1280MeO      H 7680   2.299   2.474   3.234
 1281MeO      C 7681   2.555   3.187   0.183
 1281MeO     HA 7682   2.575   3.275   0.243
 1281MeO     HB 7683   2.536   3.103   0.249
 1281MeO     HC 7684   2.466   3.205   0.123
 1281MeO      O 7685   2.666   3.159   0.099
 1281MeO      H 7686   2.741   3.138   0.156
 1282MeO      C 7687   0.039   4.819   3.133
 1282MeO     HA 7688   0.120   4.746   3.136
 1282MeO     HB 7689   0.017   4.842   3.029
 1282MeO     HC 7690   4.876   4.774   3.178
 1282MeO      O 7691   0.077   0.010   3.204
 1282MeO      H 7692   0.096   4.907   3.294
 1283MeO      C 7693   1.134   0.539   3.788
 1283MeO     HA 7694   1.103   0.630   3.838
 1283MeO     HB 7695   1.217   0.495   3.843
 1283MeO     HC 7696   1.168   0.564   3.688
 1283MeO      O 7697   1.026   0.447   3.781
 1283MeO      H 7698   1.057   0.374   3.726
 1284MeO      C 7699   4.273   0.845   3.549
 1284MeO     HA 7700   4.165   0.859   3.560
 1284MeO     HB 7701   4.292   0.793   3.455
 1284MeO     HC 7702   4.308   0.783   3.631
 1284MeO      O 7703   4.340   0.969   3.550
 1284MeO      H 7704   4.433   0.952   3.536
 1285MeO      C 7705   0.589   0.176   2.616
 1285MeO     HA 7706   0.669   0.232   2.664
 1285MeO     HB 7707   0.568   0.086   2.675
 1285MeO     HC 7708   0.499   0.237   2.615
 1285MeO      O 7709   0.625   0.141   2.484
 1285MeO      H 7710   0.551   0.092   2.446
 1286MeO      C 7711   2.793   2.252   0.413
 1286MeO     HA 7712   2.744   2.162   0.374
 1286MeO     HB 7713   2.898   2.247   0.386
 1286MeO     HC 7714   2.749   2.339   0.365
 1286MeO      O 7715   2.778   2.259   0.553
 1286MeO      H 7716   2.819   2.179   0.589
 1287MeO      C 7717   0.528   2.239   0.408
 1287MeO     HA 7718   0.596   2.297   0.345
 1287MeO     HB 7719   0.428   2.282   0.399
 1287MeO     HC 7720   0.525   2.137   0.371
 1287MeO      O 7721   0.572   2.242   0.542
 1287MeO      H 7722   0.573   2.334   0.569
 1288MeO      C 7723   3.758   0.642   3.032
 1288MeO     HA 7724   3.808   0.677   3.123
 1288MeO     HB 7725   3.830   0.643   2.950
 1288MeO     HC 7726   3.677   0.711   3.009
 1288MeO      O 7727   3.707   0.512   3.052
 1288MeO      H 7728   3.644   0.517   3.124
 1289MeO      C 7729   3.060   2.595   0.234
 1289MeO     HA 7730   3.026   2.493   0.249
 1289MeO     HB 7731   3.132   2.596   0.152
 1289MeO     HC 7732   3.112   2.628   0.324
 1289MeO      O 7733   2.952   2.680   0.206
 1289MeO      H 7734   2.989   2.768   0.190
 1290MeO      C 7735   3.468   0.888   0.824
 1290MeO     HA 7736   3.487   0.781   0.833
 1290MeO     HB 7737   3.529   0.928   0.744
 1290MeO     HC 7738   3.498   0.936   0.918
 1290MeO      O 7739   3.331   0.911   0.799
 1290MeO      H 7740   3.282   0.885   0.878
 1291MeO      C 7741   2.285   2.777   1.358
 1291MeO     HA 7742   2.352   2.853   1.399
 1291MeO     HB 7743   2.187   2.822   1.343
 1291MeO     HC 7744   2.276   2.696   1.431
 1291MeO      O 7745   2.337   2.727   1.237
 1291MeO      H 7746   2.423   2.689   1.256
 1292MeO      C 7747   3.922   0.025   1.246
 1292MeO     HA 7748   3.983   4.889   1.313
 1292MeO     HB 7749   3.946   4.925   1.143
 1292MeO     HC 7750   3.948   0.130   1.263
 1292MeO      O 7751   3.785   0.004   1.271
 1292MeO      H 7752   3.736   0.062   1.212
 1293MeO      C 7753   0.639   4.019   4.904
 1293MeO     HA 7754   0.648   4.032   4.796
 1293MeO     HB 7755   0.536   3.990   0.001
 1293MeO     HC 7756   0.660   4.114   0.027
 1293MeO      O 7757   0.729   3.920   0.023
 1293MeO      H 7758   0.818   3.952   0.002
 1294MeO      C 7759   2.956   2.049   3.348
 1294MeO     HA 7760   3.028   1.984   3.298
 1294MeO     HB 7761   3.008   2.107   3.423
 1294MeO     HC 7762   2.913   2.117   3.275
 1294MeO      O 7763   2.854   1.973   3.409
 1294MeO      H 7764   2.794   2.036   3.451
 1295MeO      C 7765   3.424   4.664   2.674
 1295MeO     HA 7766   3.422   4.684   2.781
 1295MeO     HB 7767   3.515   4.709   2.632
 1295MeO     HC 7768   3.429   4.556   2.658
 1295MeO      O 7769   3.310   4.719   2.612
 1295MeO      H 7770   3.308   4.812   2.636
 1296MeO      C 7771   1.574   1.620   0.492
 1296MeO     HA 7772   1.494   1.692   0.475
 1296MeO     HB 7773   1.578   1.597   0.598
 1296MeO     HC 7774   1.668   1.666   0.463
 1296MeO      O 7775   1.551   1.503   0.416
 1296MeO      H 7776   1.556   1.527   0.323
 1297MeO      C 7777   0.844   3.203   1.417
 1297MeO     HA 7778   0.944   3.163   1.402
 1297MeO     HB 7779   0.794   3.145   1.494
 1297MeO     HC 7780   0.789   3.190   1.324
 1297MeO      O 7781   0.850   3.339   1.452
 1297MeO      H 7782   0.896   3.384   1.379
 1298MeO      C 7783   1.134   2.667   0.026
 1298MeO     HA 7784   1.239   2.695   0.032
 1298MeO     HB 7785   1.073   2.753   0.051
 1298MeO     HC 7786   1.115   2.589   0.100
 1298MeO      O 7787   1.101   2.620   4.823
 1298MeO      H 7788   1.008   2.595   4.825
 1299MeO      C 7789   0.155   1.366   2.607
 1299MeO     HA 7790   0.164   1.297   2.691
 1299MeO     HB 7791   0.251   1.414   2.591
 1299MeO     HC 7792   0.129   1.309   2.517
 1299MeO      O 7793   0.056   1.463   2.634
 1299MeO      H 7794   0.085   1.510   2.713
 1300MeO      C 7795   3.258   2.519   2.837
 1300MeO     HA 7796   3.152   2.541   2.824
 1300MeO     HB 7797   3.306   2.606   2.883
 1300MeO     HC 7798   3.269   2.433   2.903
 1300MeO      O 7799   3.317   2.494   2.711
 1300MeO      H 7800   3.309   2.575   2.660
 1301MeO      C 7801   1.396   0.059   3.885
 1301MeO     HA 7802   1.493   0.009   3.890
 1301MeO     HB 7803   1.412   0.161   3.850
 1301MeO     HC 7804   1.333   0.006   3.814
 1301MeO      O 7805   1.335   0.061   4.013
 1301MeO      H 7806   1.399   0.102   4.073
 1302MeO      C 7807   4.881   1.718   1.240
 1302MeO     HA 7808   4.897   1.716   1.132
 1302MeO     HB 7809   4.913   1.814   1.278
 1302MeO     HC 7810   0.017   1.640   1.285
 1302MeO      O 7811   4.744   1.695   1.268
 1302MeO      H 7812   4.723   1.607   1.235
 1303MeO      C 7813   3.600   2.732   2.233
 1303MeO     HA 7814   3.566   2.773   2.138
 1303MeO     HB 7815   3.701   2.692   2.220
 1303MeO     HC 7816   3.604   2.813   2.306
 1303MeO      O 7817   3.511   2.631   2.277
 1303MeO      H 7818   3.424   2.670   2.283
 1304MeO      C 7819   1.119   1.222   4.605
 1304MeO     HA 7820   1.132   1.286   4.517
 1304MeO     HB 7821   1.014   1.223   4.634
 1304MeO     HC 7822   1.147   1.120   4.578
 1304MeO      O 7823   1.200   1.268   4.711
 1304MeO      H 7824   1.192   1.203   4.782
 1305MeO      C 7825   4.888   2.725   0.755
 1305MeO     HA 7826   4.865   2.749   0.859
 1305MeO     HB 7827   0.070   2.710   0.746
 1305MeO     HC 7828   4.836   2.633   0.728
 1305MeO      O 7829   4.847   2.831   0.672
 1305MeO      H 7830   4.893   2.910   0.701
 1306MeO      C 7831   0.730   1.515   1.554
 1306MeO     HA 7832   0.710   1.413   1.585
 1306MeO     HB 7833   0.776   1.569   1.638
 1306MeO     HC 7834   0.801   1.513   1.472
 1306MeO      O 7835   0.611   1.578   1.514
 1306MeO      H 7836   0.571   1.522   1.447
 1307MeO      C 7837   2.949   3.850   1.923
 1307MeO     HA 7838   2.895   3.759   1.894
 1307MeO     HB 7839   2.974   3.905   1.833
 1307MeO     HC 7840   3.041   3.821   1.974
 1307MeO      O 7841   2.869   3.929   2.008
 1307MeO      H 7842   2.788   3.948   1.960
 1308MeO      C 7843   4.458   0.214   3.623
 1308MeO     HA 7844   4.483   0.203   3.729
 1308MeO     HB 7845   4.349   0.217   3.613
 1308MeO     HC 7846   4.498   0.309   3.587
 1308MeO      O 7847   4.511   0.107   3.548
 1308MeO      H 7848   4.482   0.120   3.457
 1309MeO      C 7849   0.996   4.010   3.346
 1309MeO     HA 7850   0.925   3.930   3.367
 1309MeO     HB 7851   0.941   4.100   3.319
 1309MeO     HC 7852   1.057   3.980   3.261
 1309MeO      O 7853   1.078   4.032   3.459
 1309MeO      H 7854   1.122   3.948   3.477
 1310MeO      C 7855   0.572   3.756   0.798
 1310MeO     HA 7856   0.679   3.775   0.797
 1310MeO     HB 7857   0.551   3.674   0.730
 1310MeO     HC 7858   0.542   3.727   0.898
 1310MeO      O 7859   0.501   3.872   0.757
 1310MeO      H 7860   0.529   3.891   0.667
 1311MeO      C 7861   4.771   2.970   2.626
 1311MeO     HA 7862   4.698   2.888   2.620
 1311MeO     HB 7863   4.797   3.001   2.525
 1311MeO     HC 7864   4.860   2.932   2.675
 1311MeO      O 7865   4.716   3.078   2.698
 1311MeO      H 7866   4.693   3.044   2.785
 1312MeO      C 7867   2.621   4.451   0.251
 1312MeO     HA 7868   2.546   4.491   0.183
 1312MeO     HB 7869   2.627   4.343   0.236
 1312MeO     HC 7870   2.590   4.471   0.353
 1312MeO      O 7871   2.747   4.510   0.224
 1312MeO      H 7872   2.769   4.488   0.132
 1313MeO      C 7873   1.129   2.119   0.500
 1313MeO     HA 7874   1.024   2.107   0.525
 1313MeO     HB 7875   1.185   2.128   0.593
 1313MeO     HC 7876   1.141   2.210   0.442
 1313MeO      O 7877   1.174   2.007   0.427
 1313MeO      H 7878   1.164   1.930   0.485
 1314MeO      C 7879   3.389   0.542   0.269
 1314MeO     HA 7880   3.357   0.626   0.207
 1314MeO     HB 7881   3.408   0.457   0.203
 1314MeO     HC 7882   3.482   0.568   0.319
 1314MeO      O 7883   3.289   0.510   0.362
 1314MeO      H 7884   3.209   0.493   0.310
 1315MeO      C 7885   1.417   2.916   2.309
 1315MeO     HA 7886   1.414   2.937   2.415
 1315MeO     HB 7887   1.494   2.978   2.262
 1315MeO     HC 7888   1.320   2.943   2.266
 1315MeO      O 7889   1.443   2.779   2.287
 1315MeO      H 7890   1.373   2.729   2.330
 1316MeO      C 7891   2.494   2.428   0.655
 1316MeO     HA 7892   2.427   2.510   0.679
 1316MeO     HB 7893   2.444   2.361   0.585
 1316MeO     HC 7894   2.514   2.372   0.747
 1316MeO      O 7895   2.615   2.475   0.599
 1316MeO      H 7896   2.671   2.398   0.583
 1317MeO      C 7897   4.184   3.528   1.179
 1317MeO     HA 7898   4.162   3.425   1.151
 1317MeO     HB 7899   4.286   3.552   1.148
 1317MeO     HC 7900   4.115   3.594   1.126
 1317MeO      O 7901   4.171   3.546   1.319
 1317MeO      H 7902   4.190   3.639   1.336
 1318MeO      C 7903   0.125   2.656   1.476
 1318MeO     HA 7904   0.026   2.696   1.496
 1318MeO     HB 7905   0.181   2.730   1.418
 1318MeO     HC 7906   0.176   2.642   1.572
 1318MeO      O 7907   0.117   2.534   1.405
 1318MeO      H 7908   0.069   2.553   1.324
 1319MeO      C 7909   4.605   4.824   1.265
 1319MeO     HA 7910   4.683   4.848   1.337
 1319MeO     HB 7911   4.643   4.751   1.194
 1319MeO     HC 7912   4.522   4.779   1.319
 1319MeO      O 7913   4.563   0.015   1.199
 1319MeO      H 7914   4.524   0.073   1.265
 1320MeO      C 7915   3.441   4.786   1.897
 1320MeO     HA 7916   3.357   4.839   1.943
 1320MeO     HB 7917   3.505   4.746   1.976
 1320MeO     HC 7918   3.401   4.703   1.839
 1320MeO      O 7919   3.514   4.873   1.814
 1320MeO      H 7920   3.586   4.821   1.775
 1321MeO      C 7921   2.605   2.579   3.850
 1321MeO     HA 7922   2.579   2.664   3.913
 1321MeO     HB 7923   2.549   2.588   3.756
 1321MeO     HC 7924   2.574   2.487   3.900
 1321MeO      O 7925   2.744   2.576   3.824
 1321MeO      H 7926   2.762   2.499   3.769
 1322MeO      C 7927   3.416   4.439   0.548
 1322MeO     HA 7928   3.462   4.347   0.512
 1322MeO     HB 7929   3.456   4.460   0.647
 1322MeO     HC 7930   3.309   4.422   0.557
 1322MeO      O 7931   3.442   4.546   0.459
 1322MeO      H 7932   3.407   4.520   0.374
 1323MeO      C 7933   0.457   1.366   3.159
 1323MeO     HA 7934   0.360   1.415   3.153
 1323MeO     HB 7935   0.513   1.408   3.242
 1323MeO     HC 7936   0.442   1.260   3.177
 1323MeO      O 7937   0.529   1.385   3.038
 1323MeO      H 7938   0.479   1.341   2.968
 1324MeO      C 7939   2.318   4.752   1.961
 1324MeO     HA 7940   2.316   4.838   1.894
 1324MeO     HB 7941   2.421   4.718   1.971
 1324MeO     HC 7942   2.260   4.672   1.916
 1324MeO      O 7943   2.264   4.785   2.087
 1324MeO      H 7944   2.268   4.705   2.140
 1325MeO      C 7945   2.137   0.008   2.922
 1325MeO     HA 7946   2.245   4.923   2.911
 1325MeO     HB 7947   2.096   4.839   2.958
 1325MeO     HC 7948   2.116   0.085   2.996
 1325MeO      O 7949   2.079   0.043   2.798
 1325MeO      H 7950   2.116   0.128   2.773
 1326MeO      C 7951   1.665   1.087   1.094
 1326MeO     HA 7952   1.700   1.094   1.197
 1326MeO     HB 7953   1.612   1.179   1.069
 1326MeO     HC 7954   1.595   1.004   1.086
 1326MeO      O 7955   1.774   1.069   1.006
 1326MeO      H 7956   1.738   1.061   0.917
 1327MeO      C 7957   0.652   2.585   1.894
 1327MeO     HA 7958   0.675   2.479   1.907
 1327MeO     HB 7959   0.661   2.610   1.789
 1327MeO     HC 7960   0.548   2.601   1.924
 1327MeO      O 7961   0.738   2.665   1.973
 1327MeO      H 7962   0.723   2.640   2.065
 1328MeO      C 7963   2.233   0.132   4.026
 1328MeO     HA 7964   2.254   0.074   4.115
 1328MeO     HB 7965   2.145   0.194   4.044
 1328MeO     HC 7966   2.318   0.198   4.006
 1328MeO      O 7967   2.211   0.046   3.916
 1328MeO      H 7968   2.293   4.923   3.902
 1329MeO      C 7969   0.196   2.476   3.641
 1329MeO     HA 7970   0.262   2.401   3.598
 1329MeO     HB 7971   0.160   2.540   3.561
 1329MeO     HC 7972   0.111   2.426   3.687
 1329MeO      O 7973   0.266   2.553   3.737
 1329MeO      H 7974   0.343   2.590   3.692
 1330MeO      C 7975   4.564   3.618   1.471
 1330MeO     HA 7976   4.596   3.716   1.508
 1330MeO     HB 7977   4.528   3.631   1.369
 1330MeO     HC 7978   4.482   3.583   1.533
 1330MeO      O 7979   4.673   3.528   1.474
 1330MeO      H 7980   4.741   3.565   1.416
 1331MeO      C 7981   3.205   1.964   2.312
 1331MeO     HA 7982   3.220   1.866   2.266
 1331MeO     HB 7983   3.202   2.039   2.234
 1331MeO     HC 7984   3.289   1.985   2.378
 1331MeO      O 7985   3.084   1.964   2.385
 1331MeO      H 7986   3.013   1.944   2.323
 1332MeO      C 7987   4.150   0.244   0.964
 1332MeO     HA 7988   4.212   0.183   1.030
 1332MeO     HB 7989   4.064   0.280   1.020
 1332MeO     HC 7990   4.209   0.329   0.931
 1332MeO      O 7991   4.107   0.167   0.853
 1332MeO      H 7992   4.051   0.223   0.799
 1333MeO      C 7993   2.282   1.882   4.224
 1333MeO     HA 7994   2.308   1.803   4.295
 1333MeO     HB 7995   2.363   1.955   4.221
 1333MeO     HC 7996   2.192   1.933   4.260
 1333MeO      O 7997   2.259   1.828   4.095
 1333MeO      H 7998   2.238   1.903   4.038
 1334MeO      C 7999   3.075   1.266   1.007
 1334MeO     HA 8000   3.093   1.199   1.092
 1334MeO     HB 8001   3.020   1.211   0.931
 1334MeO     HC 8002   3.171   1.296   0.966
 1334MeO      O 8003   3.002   1.380   1.048
 1334MeO      H 8004   2.995   1.437   0.970
 1335MeO      C 8005   4.746   0.844   0.467
 1335MeO     HA 8006   4.709   0.781   0.387
 1335MeO     HB 8007   4.682   0.830   0.555
 1335MeO     HC 8008   4.739   0.948   0.435
 1335MeO      O 8009   4.880   0.811   0.497
 1335MeO      H 8010   0.005   0.831   0.416
 1336MeO      C 8011   3.446   0.976   1.229
 1336MeO     HA 8012   3.390   0.926   1.308
 1336MeO     HB 8013   3.516   1.046   1.274
 1336MeO     HC 8014   3.503   0.901   1.174
 1336MeO      O 8015   3.358   1.043   1.141
 1336MeO      H 8016   3.299   0.977   1.105
 1337MeO      C 8017   1.030   2.059   2.721
 1337MeO     HA 8018   1.133   2.032   2.743
 1337MeO     HB 8019   1.023   2.092   2.617
 1337MeO     HC 8020   1.002   2.143   2.785
 1337MeO      O 8021   0.943   1.950   2.745
 1337MeO      H 8022   0.954   1.924   2.837
 1338MeO      C 8023   0.589   3.642   0.305
 1338MeO     HA 8024   0.558   3.680   0.402
 1338MeO     HB 8025   0.662   3.711   0.262
 1338MeO     HC 8026   0.502   3.638   0.240
 1338MeO      O 8027   0.646   3.513   0.319
 1338MeO      H 8028   0.671   3.483   0.231
 1339MeO      C 8029   1.428   4.266   0.501
 1339MeO     HA 8030   1.403   4.179   0.561
 1339MeO     HB 8031   1.473   4.232   0.408
 1339MeO     HC 8032   1.336   4.320   0.478
 1339MeO      O 8033   1.517   4.351   0.572
 1339MeO      H 8034   1.474   4.371   0.656
 1340MeO      C 8035   4.486   4.195   0.434
 1340MeO     HA 8036   4.493   4.302   0.419
 1340MeO     HB 8037   4.565   4.147   0.377
 1340MeO     HC 8038   4.501   4.174   0.540
 1340MeO      O 8039   4.360   4.147   0.392
 1340MeO      H 8040   4.357   4.052   0.404
 1341MeO      C 8041   3.799   0.472   4.352
 1341MeO     HA 8042   3.763   0.576   4.354
 1341MeO     HB 8043   3.900   0.471   4.311
 1341MeO     HC 8044   3.734   0.415   4.286
 1341MeO      O 8045   3.798   0.418   4.482
 1341MeO      H 8046   3.857   0.474   4.536
 1342MeO      C 8047   4.301   0.488   1.251
 1342MeO     HA 8048   4.403   0.500   1.215
 1342MeO     HB 8049   4.269   0.584   1.292
 1342MeO     HC 8050   4.237   0.462   1.168
 1342MeO      O 8051   4.295   0.388   1.350
 1342MeO      H 8052   4.205   0.388   1.385
 1343MeO      C 8053   1.200   2.152   3.041
 1343MeO     HA 8054   1.116   2.201   2.993
 1343MeO     HB 8055   1.251   2.225   3.104
 1343MeO     HC 8056   1.269   2.117   2.965
 1343MeO      O 8057   1.155   2.043   3.120
 1343MeO      H 8058   1.234   2.008   3.164
 1344MeO      C 8059   4.652   4.483   0.219
 1344MeO     HA 8060   4.586   4.505   0.303
 1344MeO     HB 8061   4.715   4.570   0.202
 1344MeO     HC 8062   4.591   4.467   0.130
 1344MeO      O 8063   4.731   4.369   0.246
 1344MeO      H 8064   4.788   4.356   0.170
 1345MeO      C 8065   2.351   2.105   2.363
 1345MeO     HA 8066   2.423   2.058   2.296
 1345MeO     HB 8067   2.251   2.081   2.330
 1345MeO     HC 8068   2.364   2.213   2.357
 1345MeO      O 8069   2.372   2.061   2.496
 1345MeO      H 8070   2.314   2.114   2.553
 1346MeO      C 8071   2.920   4.282   4.409
 1346MeO     HA 8072   2.934   4.193   4.348
 1346MeO     HB 8073   3.013   4.301   4.462
 1346MeO     HC 8074   2.843   4.263   4.483
 1346MeO      O 8075   2.886   4.392   4.327
 1346MeO      H 8076   2.964   4.412   4.274
 1347MeO      C 8077   4.372   1.082   4.338
 1347MeO     HA 8078   4.386   0.979   4.372
 1347MeO     HB 8079   4.321   1.138   4.416
 1347MeO     HC 8080   4.470   1.126   4.320
 1347MeO      O 8081   4.296   1.083   4.218
 1347MeO      H 8082   4.347   1.031   4.154
 1348MeO      C 8083   1.840   2.949   3.770
 1348MeO     HA 8084   1.832   2.898   3.866
 1348MeO     HB 8085   1.914   2.898   3.710
 1348MeO     HC 8086   1.875   3.051   3.789
 1348MeO      O 8087   1.714   2.952   3.706
 1348MeO      H 8088   1.658   3.007   3.762
 1349MeO      C 8089   4.085   3.857   1.789
 1349MeO     HA 8090   4.096   3.749   1.783
 1349MeO     HB 8091   3.982   3.879   1.817
 1349MeO     HC 8092   4.104   3.900   1.691
 1349MeO      O 8093   4.173   3.911   1.885
 1349MeO      H 8094   4.156   4.006   1.886
 1350MeO      C 8095   2.575   1.930   0.682
 1350MeO     HA 8096   2.574   2.035   0.710
 1350MeO     HB 8097   2.473   1.899   0.659
 1350MeO     HC 8098   2.610   1.872   0.768
 1350MeO      O 8099   2.660   1.909   0.571
 1350MeO      H 8100   2.745   1.945   0.595
 1351MeO      C 8101   3.849   3.112   1.754
 1351MeO     HA 8102   3.856   3.129   1.647
 1351MeO     HB 8103   3.936   3.155   1.802
 1351MeO     HC 8104   3.848   3.005   1.773
 1351MeO      O 8105   3.731   3.172   1.805
 1351MeO      H 8106   3.737   3.266   1.783
 1352MeO      C 8107   2.397   4.190   3.361
 1352MeO     HA 8108   2.299   4.144   3.348
 1352MeO     HB 8109   2.386   4.298   3.357
 1352MeO     HC 8110   2.461   4.159   3.279
 1352MeO      O 8111   2.454   4.151   3.485
 1352MeO      H 8112   2.542   4.191   3.488
 1353MeO      C 8113   0.794   2.887   0.283
 1353MeO     HA 8114   0.822   2.864   0.386
 1353MeO     HB 8115   0.705   2.950   0.284
 1353MeO     HC 8116   0.771   2.794   0.232
 1353MeO      O 8117   0.900   2.953   0.216
 1353MeO      H 8118   0.868   2.970   0.127
 1354MeO      C 8119   0.414   0.092   3.379
 1354MeO     HA 8120   0.323   0.056   3.332
 1354MeO     HB 8121   0.407   0.201   3.388
 1354MeO     HC 8122   0.421   0.050   3.479
 1354MeO      O 8123   0.527   0.056   3.302
 1354MeO      H 8124   0.604   0.093   3.346
 1355MeO      C 8125   4.006   1.958   0.874
 1355MeO     HA 8126   4.053   2.009   0.957
 1355MeO     HB 8127   4.062   1.978   0.783
 1355MeO     HC 8128   3.905   1.997   0.862
 1355MeO      O 8129   4.001   1.819   0.900
 1355MeO      H 8130   3.945   1.807   0.977
 1356MeO      C 8131   4.144   3.700   3.064
 1356MeO     HA 8132   4.118   3.798   3.106
 1356MeO     HB 8133   4.064   3.670   2.996
 1356MeO     HC 8134   4.149   3.628   3.145
 1356MeO      O 8135   4.267   3.706   2.995
 1356MeO      H 8136   4.287   3.616   2.970
 1357MeO      C 8137   4.876   2.778   3.438
 1357MeO     HA 8138   4.808   2.696   3.415
 1357MeO     HB 8139   0.034   2.774   3.368
 1357MeO     HC 8140   4.915   2.764   3.539
 1357MeO      O 8141   4.810   2.902   3.429
 1357MeO      H 8142   4.875   2.969   3.451
 1358MeO      C 8143   1.331   3.070   3.639
 1358MeO     HA 8144   1.377   3.166   3.662
 1358MeO     HB 8145   1.381   3.027   3.553
 1358MeO     HC 8146   1.346   3.004   3.724
 1358MeO      O 8147   1.193   3.087   3.613
 1358MeO      H 8148   1.157   3.000   3.593
 1359MeO      C 8149   1.556   4.304   4.590
 1359MeO     HA 8150   1.547   4.367   4.502
 1359MeO     HB 8151   1.475   4.329   4.659
 1359MeO     HC 8152   1.544   4.200   4.559
 1359MeO      O 8153   1.681   4.322   4.652
 1359MeO      H 8154   1.748   4.304   4.586
 1360MeO      C 8155   4.246   3.028   1.788
 1360MeO     HA 8156   4.334   2.983   1.835
 1360MeO     HB 8157   4.164   2.957   1.792
 1360MeO     HC 8158   4.269   3.047   1.683
 1360MeO      O 8159   4.212   3.148   1.853
 1360MeO      H 8160   4.287   3.208   1.843
 1361MeO      C 8161   0.838   2.420   4.769
 1361MeO     HA 8162   0.740   2.371   4.768
 1361MeO     HB 8163   0.866   2.443   4.666
 1361MeO     HC 8164   0.910   2.350   4.810
 1361MeO      O 8165   0.833   2.538   4.847
 1361MeO      H 8166   0.805   2.511   0.010
 1362MeO      C 8167   2.005   2.403   1.332
 1362MeO     HA 8168   1.955   2.334   1.400
 1362MeO     HB 8169   1.996   2.504   1.372
 1362MeO     HC 8170   2.110   2.376   1.328
 1362MeO      O 8171   1.947   2.394   1.203
 1362MeO      H 8172   1.952   2.301   1.177
 1363MeO      C 8173   0.378   2.173   1.281
 1363MeO     HA 8174   0.313   2.255   1.251
 1363MeO     HB 8175   0.359   2.149   1.386
 1363MeO     HC 8176   0.481   2.205   1.271
 1363MeO      O 8177   0.355   2.059   1.201
 1363MeO      H 8178   0.386   2.081   1.112
 1364MeO      C 8179   1.278   0.761   3.025
 1364MeO     HA 8180   1.366   0.791   2.969
 1364MeO     HB 8181   1.306   0.680   3.092
 1364MeO     HC 8182   1.245   0.846   3.085
 1364MeO      O 8183   1.176   0.719   2.937
 1364MeO      H 8184   1.210   0.643   2.889
 1365MeO      C 8185   2.704   3.479   0.502
 1365MeO     HA 8186   2.679   3.420   0.414
 1365MeO     HB 8187   2.657   3.577   0.493
 1365MeO     HC 8188   2.662   3.429   0.590
 1365MeO      O 8189   2.843   3.493   0.517
 1365MeO      H 8190   2.858   3.536   0.601
 1366MeO      C 8191   0.185   4.226   1.787
 1366MeO     HA 8192   0.283   4.255   1.824
 1366MeO     HB 8193   0.131   4.316   1.757
 1366MeO     HC 8194   0.199   4.162   1.700
 1366MeO      O 8195   0.114   4.156   1.888
 1366MeO      H 8196   0.170   4.081   1.913
 1367MeO      C 8197   3.926   2.369   4.679
 1367MeO     HA 8198   3.973   2.375   4.581
 1367MeO     HB 8199   4.003   2.373   4.755
 1367MeO     HC 8200   3.876   2.272   4.687
 1367MeO      O 8201   3.833   2.474   4.697
 1367MeO      H 8202   3.791   2.456   4.783
 1368MeO      C 8203   2.031   2.802   0.793
 1368MeO     HA 8204   2.014   2.888   0.858
 1368MeO     HB 8205   2.097   2.732   0.844
 1368MeO     HC 8206   1.935   2.752   0.776
 1368MeO      O 8207   2.087   2.842   0.670
 1368MeO      H 8208   2.095   2.762   0.616
 1369MeO      C 8209   2.670   0.190   2.911
 1369MeO     HA 8210   2.682   0.133   2.818
 1369MeO     HB 8211   2.742   0.272   2.911
 1369MeO     HC 8212   2.570   0.231   2.913
 1369MeO      O 8213   2.692   0.106   3.022
 1369MeO      H 8214   2.782   0.071   3.014
 1370MeO      C 8215   2.121   2.563   2.131
 1370MeO     HA 8216   2.089   2.645   2.196
 1370MeO     HB 8217   2.045   2.486   2.133
 1370MeO     HC 8218   2.128   2.601   2.029
 1370MeO      O 8219   2.246   2.511   2.173
 1370MeO      H 8220   2.268   2.441   2.111
 1371MeO      C 8221   0.353   0.722   1.377
 1371MeO     HA 8222   0.267   0.716   1.310
 1371MeO     HB 8223   0.332   0.796   1.454
 1371MeO     HC 8224   0.367   0.625   1.425
 1371MeO      O 8225   0.469   0.758   1.305
 1371MeO      H 8226   0.543   0.759   1.366
 1372MeO      C 8227   0.106   0.380   2.337
 1372MeO     HA 8228   0.179   0.352   2.414
 1372MeO     HB 8229   0.095   0.488   2.338
 1372MeO     HC 8230   0.147   0.351   2.240
 1372MeO      O 8231   4.908   0.316   2.360
 1372MeO      H 8232   4.875   0.342   2.445
 1373MeO      C 8233   2.843   0.723   4.613
 1373MeO     HA 8234   2.788   0.642   4.662
 1373MeO     HB 8235   2.882   0.686   4.518
 1373MeO     HC 8236   2.928   0.750   4.676
 1373MeO      O 8237   2.760   0.835   4.593
 1373MeO      H 8238   2.813   0.902   4.549
 1374MeO      C 8239   0.725   1.843   4.579
 1374MeO     HA 8240   0.673   1.836   4.675
 1374MeO     HB 8241   0.706   1.942   4.537
 1374MeO     HC 8242   0.683   1.768   4.512
 1374MeO      O 8243   0.863   1.823   4.597
 1374MeO      H 8244   0.895   1.892   4.656
 1375MeO      C 8245   4.705   2.057   0.267
 1375MeO     HA 8246   4.765   2.108   0.192
 1375MeO     HB 8247   4.727   2.101   0.365
 1375MeO     HC 8248   4.600   2.075   0.245
 1375MeO      O 8249   4.733   1.919   0.268
 1375MeO      H 8250   4.675   1.879   0.334
 1376MeO      C 8251   2.436   0.923   0.124
 1376MeO     HA 8252   2.526   0.982   0.140
 1376MeO     HB 8253   2.379   0.967   0.042
 1376MeO     HC 8254   2.466   0.822   0.096
 1376MeO      O 8255   2.358   0.920   0.242
 1376MeO      H 8256   2.412   0.881   0.311
 1377MeO      C 8257   3.856   1.419   0.497
 1377MeO     HA 8258   3.862   1.507   0.561
 1377MeO     HB 8259   3.865   1.330   0.559
 1377MeO     HC 8260   3.939   1.420   0.427
 1377MeO      O 8261   3.734   1.416   0.426
 1377MeO      H 8262   3.733   1.333   0.378
 1378MeO      C 8263   4.749   4.166   2.327
 1378MeO     HA 8264   4.759   4.267   2.288
 1378MeO     HB 8265   4.647   4.132   2.309
 1378MeO     HC 8266   4.768   4.167   2.434
 1378MeO      O 8267   4.841   4.080   2.262
 1378MeO      H 8268   4.820   4.081   2.168
 1379MeO      C 8269   1.266   0.434   0.187
 1379MeO     HA 8270   1.266   0.498   0.099
 1379MeO     HB 8271   1.172   0.446   0.240
 1379MeO     HC 8272   1.275   0.330   0.154
 1379MeO      O 8273   1.375   0.467   0.271
 1379MeO      H 8274   1.455   0.460   0.218
 1380MeO      C 8275   3.343   4.138   4.271
 1380MeO     HA 8276   3.353   4.117   4.164
 1380MeO     HB 8277   3.327   4.245   4.283
 1380MeO     HC 8278   3.256   4.084   4.309
 1380MeO      O 8279   3.461   4.098   4.339
 1380MeO      H 8280   3.533   4.150   4.303
 1381MeO      C 8281   4.288   2.676   1.041
 1381MeO     HA 8282   4.307   2.572   1.069
 1381MeO     HB 8283   4.223   2.721   1.116
 1381MeO     HC 8284   4.236   2.677   0.945
 1381MeO      O 8285   4.409   2.748   1.032
 1381MeO      H 8286   4.385   2.838   1.008
 1382MeO      C 8287   1.310   4.231   1.926
 1382MeO     HA 8288   1.408   4.192   1.899
 1382MeO     HB 8289   1.245   4.226   1.839
 1382MeO     HC 8290   1.268   4.169   2.005
 1382MeO      O 8291   1.322   4.365   1.970
 1382MeO      H 8292   1.356   4.417   1.897
 1383MeO      C 8293   3.101   4.346   0.987
 1383MeO     HA 8294   3.128   4.432   1.048
 1383MeO     HB 8295   3.075   4.263   1.053
 1383MeO     HC 8296   3.014   4.370   0.927
 1383MeO      O 8297   3.209   4.309   0.904
 1383MeO      H 8298   3.180   4.231   0.854
 1384MeO      C 8299   4.850   1.165   1.930
 1384MeO     HA 8300   4.835   1.257   1.987
 1384MeO     HB 8301   4.899   1.092   1.995
 1384MeO     HC 8302   4.916   1.187   1.847
 1384MeO      O 8303   4.727   1.115   1.882
 1384MeO      H 8304   4.690   1.184   1.827
 1385MeO      C 8305   4.788   2.944   4.265
 1385MeO     HA 8306   4.733   2.966   4.174
 1385MeO     HB 8307   4.723   2.966   4.350
 1385MeO     HC 8308   4.875   3.010   4.269
 1385MeO      O 8309   4.829   2.809   4.267
 1385MeO      H 8310   4.887   2.797   4.191
 1386MeO      C 8311   0.005   0.542   3.343
 1386MeO     HA 8312   0.007   0.651   3.353
 1386MeO     HB 8313   4.922   0.498   3.443
 1386MeO     HC 8314   0.100   0.509   3.300
 1386MeO      O 8315   4.823   0.500   3.263
 1386MeO      H 8316   4.825   0.404   3.262
 1387MeO      C 8317   1.925   0.204   3.235
 1387MeO     HA 8318   1.842   0.250   3.288
 1387MeO     HB 8319   1.951   0.267   3.150
 1387MeO     HC 8320   1.893   0.106   3.198
 1387MeO      O 8321   2.036   0.190   3.322
 1387MeO      H 8322   2.058   0.279   3.352
 1388MeO      C 8323   4.899   1.538   3.557
 1388MeO     HA 8324   0.038   1.467   3.609
 1388MeO     HB 8325   4.917   1.529   3.450
 1388MeO     HC 8326   4.795   1.513   3.578
 1388MeO      O 8327   0.002   1.670   3.600
 1388MeO      H 8328   0.093   1.688   3.574
 1389MeO      C 8329   4.555   4.766   4.067
 1389MeO     HA 8330   4.656   4.771   4.108
 1389MeO     HB 8331   4.559   4.721   3.968
 1389MeO     HC 8332   4.517   4.868   4.057
 1389MeO      O 8333   4.471   4.690   4.152
 1389MeO      H 8334   4.383   4.690   4.112
 1390MeO      C 8335   1.689   2.185   4.217
 1390MeO     HA 8336   1.745   2.146   4.132
 1390MeO     HB 8337   1.583   2.161   4.203
 1390MeO     HC 8338   1.724   2.134   4.307
 1390MeO      O 8339   1.708   2.324   4.228
 1390MeO      H 8340   1.802   2.337   4.241
 1391MeO      C 8341   2.105   1.800   1.128
 1391MeO     HA 8342   2.134   1.703   1.169
 1391MeO     HB 8343   2.031   1.785   1.050
 1391MeO     HC 8344   2.193   1.846   1.084
 1391MeO      O 8345   2.053   1.883   1.231
 1391MeO      H 8346   2.122   1.890   1.298
 1392MeO      C 8347   4.577   4.693   2.118
 1392MeO     HA 8348   4.580   4.599   2.172
 1392MeO     HB 8349   4.537   4.675   2.018
 1392MeO     HC 8350   4.509   4.760   2.170
 1392MeO      O 8351   4.706   4.750   2.111
 1392MeO      H 8352   4.733   4.765   2.203
 1393MeO      C 8353   0.399   4.254   3.466
 1393MeO     HA 8354   0.421   4.281   3.569
 1393MeO     HB 8355   0.319   4.318   3.430
 1393MeO     HC 8356   0.488   4.272   3.405
 1393MeO      O 8357   0.360   4.119   3.458
 1393MeO      H 8358   0.280   4.109   3.512
 1394MeO      C 8359   0.571   3.156   3.019
 1394MeO     HA 8360   0.579   3.263   3.000
 1394MeO     HB 8361   0.466   3.128   3.022
 1394MeO     HC 8362   0.619   3.102   2.937
 1394MeO      O 8363   0.633   3.123   3.142
 1394MeO      H 8364   0.619   3.028   3.155
 1395MeO      C 8365   1.531   1.215   4.810
 1395MeO     HA 8366   1.476   1.258   4.894
 1395MeO     HB 8367   1.462   1.198   4.728
 1395MeO     HC 8368   1.606   1.287   4.777
 1395MeO      O 8369   1.591   1.093   4.848
 1395MeO      H 8370   1.521   1.037   4.883
 1396MeO      C 8371   3.191   2.299   4.864
 1396MeO     HA 8372   3.177   2.333   4.762
 1396MeO     HB 8373   3.153   2.376   0.006
 1396MeO     HC 8374   3.297   2.285   4.883
 1396MeO      O 8375   3.121   2.178   4.885
 1396MeO      H 8376   3.028   2.196   4.874
 1397MeO      C 8377   0.940   2.366   2.387
 1397MeO     HA 8378   0.845   2.383   2.437
 1397MeO     HB 8379   0.927   2.381   2.280
 1397MeO     HC 8380   0.970   2.263   2.405
 1397MeO      O 8381   1.038   2.454   2.439
 1397MeO      H 8382   1.042   2.437   2.534
 1398MeO      C 8383   4.257   2.950   3.557
 1398MeO     HA 8384   4.353   2.996   3.577
 1398MeO     HB 8385   4.267   2.887   3.469
 1398MeO     HC 8386   4.184   3.028   3.537
 1398MeO      O 8387   4.216   2.873   3.669
 1398MeO      H 8388   4.207   2.934   3.743
 1399MeO      C 8389   1.942   4.156   1.673
 1399MeO     HA 8390   1.995   4.095   1.599
 1399MeO     HB 8391   2.013   4.185   1.751
 1399MeO     HC 8392   1.906   4.246   1.623
 1399MeO      O 8393   1.834   4.083   1.728
 1399MeO      H 8394   1.778   4.058   1.654
 1400MeO      C 8395   1.437   0.357   0.858
 1400MeO     HA 8396   1.439   0.274   0.787
 1400MeO     HB 8397   1.499   0.331   0.944
 1400MeO     HC 8398   1.335   0.372   0.891
 1400MeO      O 8399   1.485   0.473   0.795
 1400MeO      H 8400   1.440   0.480   0.711
 1401MeO      C 8401   4.398   1.193   1.509
 1401MeO     HA 8402   4.317   1.195   1.436
 1401MeO     HB 8403   4.368   1.130   1.592
 1401MeO     HC 8404   4.486   1.149   1.462
 1401MeO      O 8405   4.428   1.324   1.554
 1401MeO      H 8406   4.501   1.316   1.616
 1402MeO      C 8407   3.326   1.668   3.522
 1402MeO     HA 8408   3.336   1.752   3.591
 1402MeO     HB 8409   3.370   1.697   3.427
 1402MeO     HC 8410   3.220   1.648   3.507
 1402MeO      O 8411   3.391   1.554   3.574
 1402MeO      H 8412   3.485   1.575   3.582
 1403MeO      C 8413   2.409   3.310   1.487
 1403MeO     HA 8414   2.412   3.340   1.591
 1403MeO     HB 8415   2.469   3.380   1.428
 1403MeO     HC 8416   2.306   3.315   1.452
 1403MeO      O 8417   2.458   3.178   1.473
 1403MeO      H 8418   2.402   3.122   1.527
 1404MeO      C 8419   0.276   4.003   0.451
 1404MeO     HA 8420   0.172   3.998   0.421
 1404MeO     HB 8421   0.283   3.993   0.559
 1404MeO     HC 8422   0.315   4.101   0.423
 1404MeO      O 8423   0.351   3.901   0.388
 1404MeO      H 8424   0.440   3.906   0.424
 1405MeO      C 8425   0.228   0.350   1.509
 1405MeO     HA 8426   0.150   0.379   1.439
 1405MeO     HB 8427   0.325   0.357   1.460
 1405MeO     HC 8428   0.226   0.419   1.593
 1405MeO      O 8429   0.206   0.218   1.554
 1405MeO      H 8430   0.118   0.218   1.595
 1406MeO      C 8431   1.530   3.500   4.758
 1406MeO     HA 8432   1.505   3.442   4.848
 1406MeO     HB 8433   1.535   3.432   4.673
 1406MeO     HC 8434   1.449   3.571   4.740
 1406MeO      O 8435   1.652   3.568   4.776
 1406MeO      H 8436   1.637   3.633   4.846
 1407MeO      C 8437   2.990   0.958   3.220
 1407MeO     HA 8438   3.073   1.013   3.176
 1407MeO     HB 8439   2.969   0.998   3.318
 1407MeO     HC 8440   3.020   0.853   3.231
 1407MeO      O 8441   2.876   0.968   3.136
 1407MeO      H 8442   2.900   0.930   3.051
 1408MeO      C 8443   0.182   2.937   1.774
 1408MeO     HA 8444   0.257   2.858   1.761
 1408MeO     HB 8445   0.131   2.922   1.869
 1408MeO     HC 8446   0.233   3.033   1.777
 1408MeO      O 8447   0.089   2.934   1.668
 1408MeO      H 8448   0.024   3.002   1.684
 1409MeO      C 8449   3.747   2.078   4.222
 1409MeO     HA 8450   3.682   2.018   4.285
 1409MeO     HB 8451   3.734   2.183   4.248
 1409MeO     HC 8452   3.851   2.050   4.243
 1409MeO      O 8453   3.717   2.055   4.086
 1409MeO      H 8454   3.733   1.962   4.069
 1410MeO      C 8455   1.699   4.009   2.029
 1410MeO     HA 8456   1.620   4.070   1.986
 1410MeO     HB 8457   1.683   4.000   2.136
 1410MeO     HC 8458   1.694   3.909   1.985
 1410MeO      O 8459   1.825   4.067   2.002
 1410MeO      H 8460   1.834   4.072   1.906
 1411MeO      C 8461   3.429   1.873   4.018
 1411MeO     HA 8462   3.462   1.962   3.964
 1411MeO     HB 8463   3.485   1.867   4.111
 1411MeO     HC 8464   3.453   1.786   3.957
 1411MeO      O 8465   3.291   1.879   4.043
 1411MeO      H 8466   3.245   1.883   3.959
 1412MeO      C 8467   3.763   3.939   0.313
 1412MeO     HA 8468   3.854   3.918   0.368
 1412MeO     HB 8469   3.724   4.035   0.347
 1412MeO     HC 8470   3.690   3.862   0.335
 1412MeO      O 8471   3.791   3.944   0.174
 1412MeO      H 8472   3.855   4.015   0.160
 1413MeO      C 8473   3.653   1.494   2.819
 1413MeO     HA 8474   3.669   1.415   2.893
 1413MeO     HB 8475   3.578   1.460   2.748
 1413MeO     HC 8476   3.746   1.510   2.765
 1413MeO      O 8477   3.611   1.614   2.880
 1413MeO      H 8478   3.597   1.677   2.809
 1414MeO      C 8479   2.950   0.865   0.063
 1414MeO     HA 8480   3.018   0.862   4.904
 1414MeO     HB 8481   2.954   0.769   0.114
 1414MeO     HC 8482   2.848   0.880   0.026
 1414MeO      O 8483   2.986   0.969   0.151
 1414MeO      H 8484   2.986   1.051   0.102
 1415MeO      C 8485   1.623   2.787   0.923
 1415MeO     HA 8486   1.534   2.844   0.896
 1415MeO     HB 8487   1.606   2.682   0.899
 1415MeO     HC 8488   1.706   2.823   0.864
 1415MeO      O 8489   1.651   2.802   1.061
 1415MeO      H 8490   1.729   2.747   1.079
 1416MeO      C 8491   4.322   1.685   3.898
 1416MeO     HA 8492   4.319   1.576   3.901
 1416MeO     HB 8493   4.384   1.715   3.814
 1416MeO     HC 8494   4.220   1.722   3.880
 1416MeO      O 8495   4.372   1.737   4.019
 1416MeO      H 8496   4.312   1.708   4.089
 1417MeO      C 8497   4.685   2.198   4.662
 1417MeO     HA 8498   4.775   2.257   4.650
 1417MeO     HB 8499   4.700   2.125   4.741
 1417MeO     HC 8500   4.603   2.264   4.692
 1417MeO      O 8501   4.652   2.133   4.541
 1417MeO      H 8502   4.574   2.080   4.558
 1418MeO      C 8503   0.731   0.338   0.091
 1418MeO     HA 8504   0.827   0.386   0.067
 1418MeO     HB 8505   0.681   0.397   0.168
 1418MeO     HC 8506   0.752   0.239   0.131
 1418MeO      O 8507   0.651   0.328   4.901
 1418MeO      H 8508   0.703   0.276   4.838
 1419MeO      C 8509   3.409   3.701   0.665
 1419MeO     HA 8510   3.389   3.807   0.680
 1419MeO     HB 8511   3.318   3.645   0.688
 1419MeO     HC 8512   3.487   3.670   0.733
 1419MeO      O 8513   3.447   3.677   0.531
 1419MeO      H 8514   3.371   3.701   0.477
 1420MeO      C 8515   0.732   1.999   1.454
 1420MeO     HA 8516   0.715   1.893   1.432
 1420MeO     HB 8517   0.656   2.058   1.403
 1420MeO     HC 8518   0.721   2.014   1.562
 1420MeO      O 8519   0.861   2.038   1.413
 1420MeO      H 8520   0.872   2.130   1.437
 1421MeO      C 8521   4.514   0.187   1.517
 1421MeO     HA 8522   4.574   0.100   1.541
 1421MeO     HB 8523   4.441   0.202   1.597
 1421MeO     HC 8524   4.578   0.275   1.512
 1421MeO      O 8525   4.446   0.169   1.394
 1421MeO      H 8526   4.396   0.251   1.378
 1422MeO      C 8527   2.732   3.999   2.782
 1422MeO     HA 8528   2.730   4.057   2.690
 1422MeO     HB 8529   2.749   4.067   2.866
 1422MeO     HC 8530   2.814   3.927   2.777
 1422MeO      O 8531   2.608   3.932   2.799
 1422MeO      H 8532   2.539   4.000   2.802
 1423MeO      C 8533   0.182   1.389   0.228
 1423MeO     HA 8534   0.281   1.397   0.273
 1423MeO     HB 8535   0.169   1.474   0.161
 1423MeO     HC 8536   0.177   1.298   0.169
 1423MeO      O 8537   0.083   1.391   0.328
 1423MeO      H 8538   0.090   1.477   0.372
 1424MeO      C 8539   0.389   1.018   3.819
 1424MeO     HA 8540   0.375   0.910   3.825
 1424MeO     HB 8541   0.495   1.039   3.810
 1424MeO     HC 8542   0.352   1.064   3.911
 1424MeO      O 8543   0.320   1.070   3.707
 1424MeO      H 8544   0.358   1.027   3.629
 1425MeO      C 8545   3.680   0.672   0.594
 1425MeO     HA 8546   3.671   0.613   0.685
 1425MeO     HB 8547   3.678   0.605   0.509
 1425MeO     HC 8548   3.594   0.739   0.589
 1425MeO      O 8549   3.800   0.747   0.597
 1425MeO      H 8550   3.801   0.796   0.679
 1426MeO      C 8551   4.696   0.766   4.339
 1426MeO     HA 8552   4.774   0.741   4.267
 1426MeO     HB 8553   4.741   0.826   4.418
 1426MeO     HC 8554   4.620   0.825   4.288
 1426MeO      O 8555   4.640   0.648   4.393
 1426MeO      H 8556   4.712   0.598   4.432
 1427MeO      C 8557   3.524   0.637   2.714
 1427MeO     HA 8558   3.416   0.646   2.701
 1427MeO     HB 8559   3.558   0.720   2.777
 1427MeO     HC 8560   3.545   0.544   2.766
 1427MeO      O 8561   3.590   0.640   2.590
 1427MeO      H 8562   3.684   0.632   2.609
 1428MeO      C 8563   0.379   1.762   1.357
 1428MeO     HA 8564   0.449   1.827   1.409
 1428MeO     HB 8565   0.355   1.678   1.423
 1428MeO     HC 8566   0.426   1.724   1.267
 1428MeO      O 8567   0.262   1.834   1.324
 1428MeO      H 8568   0.290   1.912   1.276
 1429MeO      C 8569   1.930   2.107   1.693
 1429MeO     HA 8570   1.838   2.052   1.716
 1429MeO     HB 8571   1.968   2.069   1.598
 1429MeO     HC 8572   2.003   2.087   1.770
 1429MeO      O 8573   1.902   2.245   1.683
 1429MeO      H 8574   1.834   2.254   1.615
 1430MeO      C 8575   3.463   1.268   0.512
 1430MeO     HA 8576   3.466   1.257   0.404
 1430MeO     HB 8577   3.549   1.215   0.554
 1430MeO     HC 8578   3.472   1.374   0.537
 1430MeO      O 8579   3.344   1.214   0.564
 1430MeO      H 8580   3.347   1.119   0.549
 1431MeO      C 8581   1.973   2.728   1.159
 1431MeO     HA 8582   1.958   2.830   1.124
 1431MeO     HB 8583   2.071   2.693   1.127
 1431MeO     HC 8584   1.970   2.728   1.268
 1431MeO      O 8585   1.872   2.643   1.108
 1431MeO      H 8586   1.894   2.554   1.139
 1432MeO      C 8587   1.907   2.175   0.277
 1432MeO     HA 8588   2.012   2.150   0.265
 1432MeO     HB 8589   1.886   2.265   0.219
 1432MeO     HC 8590   1.846   2.094   0.236
 1432MeO      O 8591   1.874   2.195   0.413
 1432MeO      H 8592   1.779   2.210   0.416
 1433MeO      C 8593   2.708   4.384   3.556
 1433MeO     HA 8594   2.632   4.390   3.634
 1433MeO     HB 8595   2.805   4.404   3.600
 1433MeO     HC 8596   2.687   4.461   3.482
 1433MeO      O 8597   2.707   4.257   3.495
 1433MeO      H 8598   2.777   4.256   3.429
 1434MeO      C 8599   1.793   0.099   4.666
 1434MeO     HA 8600   1.751   0.139   4.574
 1434MeO     HB 8601   1.810   4.918   4.654
 1434MeO     HC 8602   1.720   0.113   4.746
 1434MeO      O 8603   1.914   0.165   4.698
 1434MeO      H 8604   1.893   0.258   4.710
 1435MeO      C 8605   4.894   2.667   2.887
 1435MeO     HA 8606   4.903   2.571   2.937
 1435MeO     HB 8607   4.923   2.654   2.782
 1435MeO     HC 8608   0.038   2.737   2.933
 1435MeO      O 8609   4.761   2.715   2.895
 1435MeO      H 8610   4.705   2.649   2.853
 1436MeO      C 8611   3.521   3.947   1.002
 1436MeO     HA 8612   3.490   4.039   0.953
 1436MeO     HB 8613   3.518   3.867   0.927
 1436MeO     HC 8614   3.623   3.959   1.036
 1436MeO      O 8615   3.435   3.918   1.110
 1436MeO      H 8616   3.446   3.990   1.173
 1437MeO      C 8617   0.047   3.522   3.152
 1437MeO     HA 8618   0.152   3.536   3.179
 1437MeO     HB 8619   0.019   3.419   3.174
 1437MeO     HC 8620   4.912   3.589   3.214
 1437MeO      O 8621   0.028   3.550   3.015
 1437MeO      H 8622   0.080   3.486   2.965
 1438MeO      C 8623   1.407   2.479   4.281
 1438MeO     HA 8624   1.322   2.546   4.268
 1438MeO     HB 8625   1.457   2.505   4.374
 1438MeO     HC 8626   1.370   2.377   4.288
 1438MeO      O 8627   1.497   2.491   4.173
 1438MeO      H 8628   1.570   2.431   4.191
 1439MeO      C 8629   0.589   0.965   2.034
 1439MeO     HA 8630   0.682   0.908   2.028
 1439MeO     HB 8631   0.527   0.940   1.948
 1439MeO     HC 8632   0.613   1.071   2.029
 1439MeO      O 8633   0.520   0.936   2.153
 1439MeO      H 8634   0.433   0.977   2.147
 1440MeO      C 8635   3.640   3.166   4.111
 1440MeO     HA 8636   3.589   3.242   4.170
 1440MeO     HB 8637   3.617   3.184   4.006
 1440MeO     HC 8638   3.602   3.068   4.138
 1440MeO      O 8639   3.780   3.174   4.132
 1440MeO      H 8640   3.806   3.263   4.108
 1441MeO      C 8641   3.124   1.737   2.631
 1441MeO     HA 8642   3.230   1.757   2.616
 1441MeO     HB 8643   3.089   1.675   2.549
 1441MeO     HC 8644   3.111   1.682   2.724
 1441MeO      O 8645   3.052   1.859   2.635
 1441MeO      H 8646   3.062   1.900   2.548
 1442MeO      C 8647   4.058   0.447   1.907
 1442MeO     HA 8648   4.037   0.465   1.802
 1442MeO     HB 8649   3.965   0.457   1.964
 1442MeO     HC 8650   4.128   0.522   1.942
 1442MeO      O 8651   4.111   0.317   1.925
 1442MeO      H 8652   4.132   0.306   2.018
 1443MeO      C 8653   0.656   3.182   2.539
 1443MeO     HA 8654   0.596   3.268   2.509
 1443MeO     HB 8655   0.755   3.193   2.495
 1443MeO     HC 8656   0.666   3.184   2.648
 1443MeO      O 8657   0.596   3.062   2.496
 1443MeO      H 8658   0.599   3.063   2.400
 1444MeO      C 8659   1.424   3.450   3.792
 1444MeO     HA 8660   1.346   3.383   3.827
 1444MeO     HB 8661   1.389   3.501   3.702
 1444MeO     HC 8662   1.443   3.526   3.868
 1444MeO      O 8663   1.542   3.378   3.764
 1444MeO      H 8664   1.609   3.443   3.738
 1445MeO      C 8665   0.989   1.766   4.123
 1445MeO     HA 8666   1.065   1.806   4.190
 1445MeO     HB 8667   0.901   1.830   4.127
 1445MeO     HC 8668   0.962   1.666   4.158
 1445MeO      O 8669   1.040   1.758   3.991
 1445MeO      H 8670   1.116   1.700   3.995
 1446MeO      C 8671   2.560   2.547   2.913
 1446MeO     HA 8672   2.490   2.468   2.885
 1446MeO     HB 8673   2.504   2.628   2.959
 1446MeO     HC 8674   2.630   2.507   2.986
 1446MeO      O 8675   2.629   2.593   2.798
 1446MeO      H 8676   2.562   2.622   2.734
 1447MeO      C 8677   2.401   0.366   2.318
 1447MeO     HA 8678   2.330   0.395   2.396
 1447MeO     HB 8679   2.365   0.274   2.271
 1447MeO     HC 8680   2.403   0.445   2.244
 1447MeO      O 8681   2.529   0.347   2.374
 1447MeO      H 8682   2.551   0.429   2.420
 1448MeO      C 8683   1.386   0.250   1.762
 1448MeO     HA 8684   1.377   0.239   1.654
 1448MeO     HB 8685   1.467   0.187   1.797
 1448MeO     HC 8686   1.411   0.354   1.784
 1448MeO      O 8687   1.265   0.214   1.826
 1448MeO      H 8688   1.281   0.224   1.921
 1449MeO      C 8689   0.602   2.517   1.457
 1449MeO     HA 8690   0.679   2.551   1.387
 1449MeO     HB 8691   0.527   2.461   1.402
 1449MeO     HC 8692   0.554   2.605   1.501
 1449MeO      O 8693   0.659   2.437   1.559
 1449MeO      H 8694   0.586   2.410   1.617
 1450MeO      C 8695   3.342   2.684   1.869
 1450MeO     HA 8696   3.413   2.691   1.952
 1450MeO     HB 8697   3.242   2.700   1.910
 1450MeO     HC 8698   3.363   2.762   1.797
 1450MeO      O 8699   3.350   2.556   1.809
 1450MeO      H 8700   3.326   2.492   1.878
 1451MeO      C 8701   1.720   1.702   2.505
 1451MeO     HA 8702   1.815   1.649   2.500
 1451MeO     HB 8703   1.681   1.713   2.403
 1451MeO     HC 8704   1.649   1.642   2.562
 1451MeO      O 8705   1.738   1.828   2.565
 1451MeO      H 8706   1.797   1.879   2.508
 1452MeO      C 8707   1.004   0.141   1.609
 1452MeO     HA 8708   0.940   0.084   1.542
 1452MeO     HB 8709   0.947   0.166   1.698
 1452MeO     HC 8710   1.032   0.234   1.559
 1452MeO      O 8711   1.119   0.067   1.644
 1452MeO      H 8712   1.170   0.121   1.705
 1453MeO      C 8713   3.227   2.716   3.167
 1453MeO     HA 8714   3.175   2.735   3.073
 1453MeO     HB 8715   3.269   2.615   3.164
 1453MeO     HC 8716   3.155   2.721   3.248
 1453MeO      O 8717   3.330   2.810   3.187
 1453MeO      H 8718   3.371   2.790   3.273
 1454MeO      C 8719   2.485   1.529   3.418
 1454MeO     HA 8720   2.577   1.588   3.412
 1454MeO     HB 8721   2.463   1.491   3.319
 1454MeO     HC 8722   2.503   1.445   3.485
 1454MeO      O 8723   2.378   1.609   3.465
 1454MeO      H 8724   2.370   1.684   3.404
 1455MeO      C 8725   0.101   2.383   3.188
 1455MeO     HA 8726   0.073   2.487   3.175
 1455MeO     HB 8727   0.011   2.321   3.187
 1455MeO     HC 8728   0.149   2.371   3.285
 1455MeO      O 8729   0.188   2.342   3.085
 1455MeO      H 8730   0.211   2.250   3.103
 1456MeO      C 8731   4.189   2.075   0.281
 1456MeO     HA 8732   4.245   2.159   0.240
 1456MeO     HB 8733   4.248   1.984   0.269
 1456MeO     HC 8734   4.174   2.092   0.388
 1456MeO      O 8735   4.064   2.061   0.217
 1456MeO      H 8736   4.019   1.987   0.261
 1457MeO      C 8737   1.359   0.423   2.878
 1457MeO     HA 8738   1.414   0.479   2.954
 1457MeO     HB 8739   1.429   0.358   2.825
 1457MeO     HC 8740   1.285   0.360   2.929
 1457MeO      O 8741   1.295   0.511   2.788
 1457MeO      H 8742   1.365   0.568   2.752
 1458MeO      C 8743   4.803   2.011   2.024
 1458MeO     HA 8744   4.821   2.113   1.987
 1458MeO     HB 8745   4.892   1.979   2.079
 1458MeO     HC 8746   4.789   1.946   1.938
 1458MeO      O 8747   4.690   2.009   2.108
 1458MeO      H 8748   4.707   2.070   2.180
 1459MeO      C 8749   0.474   2.914   1.437
 1459MeO     HA 8750   0.394   2.865   1.493
 1459MeO     HB 8751   0.559   2.931   1.504
 1459MeO     HC 8752   0.439   3.010   1.402
 1459MeO      O 8753   0.514   2.834   1.328
 1459MeO      H 8754   0.587   2.880   1.285
 1460MeO      C 8755   4.490   1.304   2.467
 1460MeO     HA 8756   4.432   1.217   2.497
 1460MeO     HB 8757   4.539   1.282   2.371
 1460MeO     HC 8758   4.422   1.387   2.452
 1460MeO      O 8759   4.588   1.334   2.565
 1460MeO      H 8760   4.638   1.410   2.532
 1461MeO      C 8761   4.125   1.161   0.024
 1461MeO     HA 8762   4.173   1.135   0.118
 1461MeO     HB 8763   4.202   1.176   4.874
 1461MeO     HC 8764   4.071   1.254   0.037
 1461MeO      O 8765   4.036   1.059   4.909
 1461MeO      H 8766   3.999   1.086   4.824
 1462MeO      C 8767   2.671   0.990   3.558
 1462MeO     HA 8768   2.601   1.054   3.504
 1462MeO     HB 8769   2.764   0.985   3.500
 1462MeO     HC 8770   2.629   0.890   3.565
 1462MeO      O 8771   2.696   1.044   3.686
 1462MeO      H 8772   2.729   1.134   3.672
 1463MeO      C 8773   2.700   2.776   0.452
 1463MeO     HA 8774   2.706   2.714   0.363
 1463MeO     HB 8775   2.792   2.762   0.510
 1463MeO     HC 8776   2.693   2.880   0.422
 1463MeO      O 8777   2.588   2.739   0.530
 1463MeO      H 8778   2.597   2.645   0.550
 1464MeO      C 8779   1.083   1.875   1.634
 1464MeO     HA 8780   1.087   1.929   1.540
 1464MeO     HB 8781   1.006   1.921   1.697
 1464MeO     HC 8782   1.054   1.771   1.614
 1464MeO      O 8783   1.208   1.879   1.699
 1464MeO      H 8784   1.227   1.972   1.717
 1465MeO      C 8785   1.462   4.164   0.091
 1465MeO     HA 8786   1.497   4.245   0.027
 1465MeO     HB 8787   1.542   4.139   0.161
 1465MeO     HC 8788   1.443   4.077   0.028
 1465MeO      O 8789   1.345   4.203   0.160
 1465MeO      H 8790   1.319   4.129   0.215
 1466MeO      C 8791   3.859   4.539   2.419
 1466MeO     HA 8792   3.852   4.431   2.401
 1466MeO     HB 8793   3.759   4.581   2.413
 1466MeO     HC 8794   3.920   4.583   2.341
 1466MeO      O 8795   3.915   4.565   2.546
 1466MeO      H 8796   3.922   4.661   2.554
 1467MeO      C 8797   4.848   3.377   2.567
 1467MeO     HA 8798   4.915   3.463   2.561
 1467MeO     HB 8799   4.866   3.313   2.481
 1467MeO     HC 8800   4.745   3.413   2.563
 1467MeO      O 8801   4.871   3.305   2.687
 1467MeO      H 8802   4.811   3.229   2.687
 1468MeO      C 8803   1.749   4.819   0.377
 1468MeO     HA 8804   1.736   4.805   0.270
 1468MeO     HB 8805   1.851   4.792   0.403
 1468MeO     HC 8806   1.734   4.925   0.401
 1468MeO      O 8807   1.657   4.739   0.448
 1468MeO      H 8808   1.681   4.647   0.431
 1469MeO      C 8809   0.009   1.713   0.086
 1469MeO     HA 8810   0.044   1.645   0.008
 1469MeO     HB 8811   4.918   1.656   0.178
 1469MeO     HC 8812   0.087   1.787   0.105
 1469MeO      O 8813   4.816   1.778   0.046
 1469MeO      H 8814   4.788   1.832   0.121
 1470MeO      C 8815   1.704   0.730   3.716
 1470MeO     HA 8816   1.718   0.723   3.608
 1470MeO     HB 8817   1.695   0.836   3.743
 1470MeO     HC 8818   1.793   0.690   3.764
 1470MeO      O 8819   1.590   0.658   3.756
 1470MeO      H 8820   1.604   0.566   3.730
 1471MeO      C 8821   3.504   4.709   3.129
 1471MeO     HA 8822   3.541   4.769   3.211
 1471MeO     HB 8823   3.404   4.672   3.154
 1471MeO     HC 8824   3.495   4.772   3.040
 1471MeO      O 8825   3.592   4.601   3.103
 1471MeO      H 8826   3.677   4.640   3.080
 1472MeO      C 8827   4.125   2.147   3.266
 1472MeO     HA 8828   4.040   2.184   3.323
 1472MeO     HB 8829   4.216   2.170   3.320
 1472MeO     HC 8830   4.127   2.198   3.170
 1472MeO      O 8831   4.113   2.007   3.245
 1472MeO      H 8832   4.031   1.993   3.198
 1473MeO      C 8833   0.056   1.719   0.534
 1473MeO     HA 8834   0.028   1.676   0.630
 1473MeO     HB 8835   0.118   1.807   0.553
 1473MeO     HC 8836   4.892   1.750   0.481
 1473MeO      O 8837   0.128   1.624   0.459
 1473MeO      H 8838   0.206   1.601   0.512
 1474MeO      C 8839   4.529   3.360   4.237
 1474MeO     HA 8840   4.443   3.319   4.184
 1474MeO     HB 8841   4.494   3.412   4.326
 1474MeO     HC 8842   4.578   3.433   4.173
 1474MeO      O 8843   4.619   3.258   4.272
 1474MeO      H 8844   4.694   3.300   4.315
 1475MeO      C 8845   4.565   4.751   3.273
 1475MeO     HA 8846   4.577   4.815   3.361
 1475MeO     HB 8847   4.583   4.811   3.184
 1475MeO     HC 8848   4.463   4.714   3.270
 1475MeO      O 8849   4.656   4.642   3.278
 1475MeO      H 8850   4.638   4.587   3.202
 1476MeO      C 8851   3.636   4.154   0.712
 1476MeO     HA 8852   3.733   4.127   0.753
 1476MeO     HB 8853   3.651   4.214   0.623
 1476MeO     HC 8854   3.582   4.214   0.786
 1476MeO      O 8855   3.562   4.038   0.681
 1476MeO      H 8856   3.476   4.067   0.650
 1477MeO      C 8857   1.845   0.528   4.658
 1477MeO     HA 8858   1.932   0.594   4.664
 1477MeO     HB 8859   1.839   0.488   4.557
 1477MeO     HC 8860   1.756   0.587   4.678
 1477MeO      O 8861   1.857   0.425   4.754
 1477MeO      H 8862   1.857   0.467   4.840
 1478MeO      C 8863   4.086   2.961   1.412
 1478MeO     HA 8864   4.046   2.866   1.378
 1478MeO     HB 8865   4.194   2.960   1.400
 1478MeO     HC 8866   4.064   2.972   1.519
 1478MeO      O 8867   4.030   3.068   1.340
 1478MeO      H 8868   4.070   3.149   1.374
 1479MeO      C 8869   2.425   1.095   4.467
 1479MeO     HA 8870   2.388   1.134   4.562
 1479MeO     HB 8871   2.386   0.994   4.453
 1479MeO     HC 8872   2.534   1.089   4.472
 1479MeO      O 8873   2.386   1.179   4.360
 1479MeO      H 8874   2.425   1.140   4.280
 1480MeO      C 8875   3.009   1.398   1.703
 1480MeO     HA 8876   2.933   1.398   1.625
 1480MeO     HB 8877   2.960   1.385   1.799
 1480MeO     HC 8878   3.076   1.314   1.686
 1480MeO      O 8879   3.081   1.520   1.700
 1480MeO      H 8880   3.117   1.528   1.611
 1481MeO      C 8881   1.961   3.312   3.678
 1481MeO     HA 8882   1.965   3.414   3.638
 1481MeO     HB 8883   2.026   3.306   3.765
 1481MeO     HC 8884   1.858   3.292   3.710
 1481MeO      O 8885   2.000   3.219   3.579
 1481MeO      H 8886   1.935   3.226   3.508
 1482MeO      C 8887   0.485   2.796   3.678
 1482MeO     HA 8888   0.576   2.852   3.657
 1482MeO     HB 8889   0.464   2.802   3.784
 1482MeO     HC 8890   0.402   2.842   3.623
 1482MeO      O 8891   0.500   2.660   3.640
 1482MeO      H 8892   0.574   2.625   3.693
 1483MeO      C 8893   4.251   2.124   1.467
 1483MeO     HA 8894   4.297   2.215   1.428
 1483MeO     HB 8895   4.305   2.093   1.556
 1483MeO     HC 8896   4.259   2.046   1.391
 1483MeO      O 8897   4.115   2.148   1.497
 1483MeO      H 8898   4.071   2.173   1.415
 1484MeO      C 8899   0.561   4.683   2.575
 1484MeO     HA 8900   0.558   4.691   2.466
 1484MeO     HB 8901   0.538   4.781   2.617
 1484MeO     HC 8902   0.663   4.656   2.605
 1484MeO      O 8903   0.469   4.586   2.620
 1484MeO      H 8904   0.495   4.503   2.577
 1485MeO      C 8905   2.217   3.617   3.263
 1485MeO     HA 8906   2.317   3.661   3.268
 1485MeO     HB 8907   2.164   3.641   3.355
 1485MeO     HC 8908   2.229   3.509   3.257
 1485MeO      O 8909   2.148   3.666   3.151
 1485MeO      H 8910   2.201   3.642   3.073
 1486MeO      C 8911   3.537   2.769   4.747
 1486MeO     HA 8912   3.470   2.765   4.661
 1486MeO     HB 8913   3.606   2.852   4.734
 1486MeO     HC 8914   3.595   2.677   4.750
 1486MeO      O 8915   3.464   2.784   4.866
 1486MeO      H 8916   3.528   2.784   0.013
 1487MeO      C 8917   0.134   2.232   1.564
 1487MeO     HA 8918   0.035   2.264   1.596
 1487MeO     HB 8919   0.168   2.153   1.631
 1487MeO     HC 8920   0.126   2.193   1.463
 1487MeO      O 8921   0.223   2.342   1.568
 1487MeO      H 8922   0.187   2.409   1.509
 1488MeO      C 8923   4.550   3.909   0.157
 1488MeO     HA 8924   4.648   3.909   0.109
 1488MeO     HB 8925   4.479   3.860   0.090
 1488MeO     HC 8926   4.518   4.012   0.172
 1488MeO      O 8927   4.555   3.841   0.280
 1488MeO      H 8928   4.467   3.846   0.319
 1489MeO      C 8929   1.068   0.357   2.265
 1489MeO     HA 8930   1.074   0.347   2.157
 1489MeO     HB 8931   0.998   0.283   2.303
 1489MeO     HC 8932   1.029   0.456   2.288
 1489MeO      O 8933   1.194   0.340   2.325
 1489MeO      H 8934   1.182   0.351   2.420
 1490MeO      C 8935   3.718   0.341   0.348
 1490MeO     HA 8936   3.728   0.447   0.327
 1490MeO     HB 8937   3.749   0.285   0.260
 1490MeO     HC 8938   3.613   0.319   0.368
 1490MeO      O 8939   3.797   0.304   0.460
 1490MeO      H 8940   3.784   0.209   0.470
 1491MeO      C 8941   2.755   2.443   2.487
 1491MeO     HA 8942   2.728   2.411   2.386
 1491MeO     HB 8943   2.752   2.357   2.554
 1491MeO     HC 8944   2.682   2.516   2.521
 1491MeO      O 8945   2.885   2.500   2.488
 1491MeO      H 8946   2.901   2.529   2.579
 1492MeO      C 8947   1.233   3.859   4.033
 1492MeO     HA 8948   1.166   3.919   4.094
 1492MeO     HB 8949   1.181   3.769   4.002
 1492MeO     HC 8950   1.260   3.916   3.944
 1492MeO      O 8951   1.349   3.825   4.107
 1492MeO      H 8952   1.320   3.774   4.183
 1493MeO      C 8953   2.809   2.088   4.845
 1493MeO     HA 8954   2.889   2.028   4.802
 1493MeO     HB 8955   2.787   2.049   0.019
 1493MeO     HC 8956   2.720   2.077   4.783
 1493MeO      O 8957   2.847   2.224   4.853
 1493MeO      H 8958   2.772   2.271   4.890
 1494MeO      C 8959   1.237   3.343   1.016
 1494MeO     HA 8960   1.209   3.447   1.002
 1494MeO     HB 8961   1.335   3.339   1.063
 1494MeO     HC 8962   1.245   3.296   0.918
 1494MeO      O 8963   1.142   3.276   1.095
 1494MeO      H 8964   1.169   3.183   1.097
 1495MeO      C 8965   0.041   4.396   4.496
 1495MeO     HA 8966   0.091   4.478   4.444
 1495MeO     HB 8967   0.022   4.316   4.425
 1495MeO     HC 8968   4.871   4.433   4.533
 1495MeO      O 8969   0.121   4.350   4.603
 1495MeO      H 8970   0.138   4.426   4.660
 1496MeO      C 8971   1.425   0.149   2.143
 1496MeO     HA 8972   1.375   0.071   2.200
 1496MeO     HB 8973   1.477   0.103   2.059
 1496MeO     HC 8974   1.499   0.196   2.208
 1496MeO      O 8975   1.332   0.245   2.098
 1496MeO      H 8976   1.289   0.281   2.176
 1497MeO      C 8977   0.308   0.007   2.459
 1497MeO     HA 8978   0.230   0.075   2.424
 1497MeO     HB 8979   0.339   0.038   2.559
 1497MeO     HC 8980   0.266   4.832   2.466
 1497MeO      O 8981   0.417   0.008   2.370
 1497MeO      H 8982   0.383   4.898   2.287
 1498MeO      C 8983   0.905   0.937   3.879
 1498MeO     HA 8984   0.949   0.875   3.801
 1498MeO     HB 8985   0.797   0.921   3.880
 1498MeO     HC 8986   0.946   0.905   3.975
 1498MeO      O 8987   0.935   1.073   3.856
 1498MeO      H 8988   1.031   1.081   3.857
 1499MeO      C 8989   3.596   1.601   3.234
 1499MeO     HA 8990   3.500   1.551   3.220
 1499MeO     HB 8991   3.632   1.578   3.335
 1499MeO     HC 8992   3.580   1.708   3.227
 1499MeO      O 8993   3.689   1.558   3.137
 1499MeO      H 8994   3.655   1.583   3.050
 1500MeO      C 8995   2.721   2.095   3.029
 1500MeO     HA 8996   2.778   2.018   3.081
 1500MeO     HB 8997   2.714   2.066   2.925
 1500MeO     HC 8998   2.776   2.189   3.036
 1500MeO      O 8999   2.593   2.107   3.086
 1500MeO      H 9000   2.551   2.021   3.079
 1501MeO      C 9001   2.644   2.474   0.082
 1501MeO     HA 9002   2.572   2.544   0.039
 1501MeO     HB 9003   2.744   2.509   0.059
 1501MeO     HC 9004   2.631   2.474   0.190
 1501MeO      O 9005   2.622   2.344   0.029
 1501MeO      H 9006   2.533   2.319   0.056
 1502MeO      C 9007   3.624   1.152   4.865
 1502MeO     HA 9008   3.719   1.192   4.829
 1502MeO     HB 9009   3.611   1.051   4.826
 1502MeO     HC 9010   3.626   1.148   0.048
 1502MeO      O 9011   3.517   1.235   4.822
 1502MeO      H 9012   3.436   1.200   4.862
 1503MeO      C 9013   3.006   2.544   4.030
 1503MeO     HA 9014   3.090   2.565   4.096
 1503MeO     HB 9015   3.044   2.498   3.939
 1503MeO     HC 9016   2.940   2.472   4.079
 1503MeO      O 9017   2.935   2.662   3.999
 1503MeO      H 9018   2.867   2.637   3.935
 1504MeO      C 9019   1.793   1.290   3.384
 1504MeO     HA 9020   1.735   1.218   3.442
 1504MeO     HB 9021   1.874   1.236   3.334
 1504MeO     HC 9022   1.837   1.362   3.453
 1504MeO      O 9023   1.711   1.355   3.289
 1504MeO      H 9024   1.681   1.288   3.228
 1505MeO      C 9025   2.199   3.123   0.266
 1505MeO     HA 9026   2.240   3.057   0.343
 1505MeO     HB 9027   2.256   3.215   0.264
 1505MeO     HC 9028   2.096   3.148   0.293
 1505MeO      O 9029   2.203   3.062   0.139
 1505MeO      H 9030   2.154   3.120   0.080
 1506MeO      C 9031   3.114   4.623   2.008
 1506MeO     HA 9032   3.140   4.685   1.923
 1506MeO     HB 9033   3.018   4.657   2.048
 1506MeO     HC 9034   3.190   4.635   2.085
 1506MeO      O 9035   3.106   4.487   1.969
 1506MeO      H 9036   3.194   4.464   1.936
 1507MeO      C 9037   4.232   4.407   0.207
 1507MeO     HA 9038   4.164   4.462   0.142
 1507MeO     HB 9039   4.244   4.464   0.300
 1507MeO     HC 9040   4.329   4.400   0.158
 1507MeO      O 9041   4.182   4.279   0.235
 1507MeO      H 9042   4.246   4.236   0.293
 1508MeO      C 9043   1.202   0.513   1.385
 1508MeO     HA 9044   1.201   0.463   1.482
 1508MeO     HB 9045   1.167   0.443   1.309
 1508MeO     HC 9046   1.304   0.542   1.362
 1508MeO      O 9047   1.119   0.628   1.387
 1508MeO      H 9048   1.125   0.667   1.299
 1509MeO      C 9049   2.569   2.004   3.954
 1509MeO     HA 9050   2.567   1.968   3.852
 1509MeO     HB 9051   2.524   1.929   4.019
 1509MeO     HC 9052   2.510   2.096   3.961
 1509MeO      O 9053   2.702   2.029   3.995
 1509MeO      H 9054   2.697   2.066   4.085
 1510MeO      C 9055   4.048   1.390   2.642
 1510MeO     HA 9056   4.038   1.479   2.705
 1510MeO     HB 9057   3.998   1.307   2.691
 1510MeO     HC 9058   4.000   1.410   2.546
 1510MeO      O 9059   4.185   1.360   2.622
 1510MeO      H 9060   4.223   1.347   2.709
 1511MeO      C 9061   3.070   4.262   4.814
 1511MeO     HA 9062   3.124   4.231   4.903
 1511MeO     HB 9063   3.117   4.216   4.727
 1511MeO     HC 9064   2.967   4.227   4.821
 1511MeO      O 9065   3.072   4.403   4.801
 1511MeO      H 9066   3.165   4.428   4.790
 1512MeO      C 9067   1.099   0.242   4.167
 1512MeO     HA 9068   1.190   0.289   4.202
 1512MeO     HB 9069   1.079   0.277   4.065
 1512MeO     HC 9070   1.016   0.273   4.231
 1512MeO      O 9071   1.113   0.101   4.168
 1512MeO      H 9072   1.187   0.082   4.110
 1513MeO      C 9073   3.482   1.255   0.912
 1513MeO     HA 9074   3.516   1.344   0.858
 1513MeO     HB 9075   3.565   1.184   0.917
 1513MeO     HC 9076   3.401   1.210   0.857
 1513MeO      O 9077   3.440   1.289   1.043
 1513MeO      H 9078   3.410   1.206   1.083
 1514MeO      C 9079   3.252   0.047   1.632
 1514MeO     HA 9080   3.323   0.032   1.551
 1514MeO     HB 9081   3.219   4.875   1.667
 1514MeO     HC 9082   3.166   0.101   1.594
 1514MeO      O 9083   3.312   0.118   1.738
 1514MeO      H 9084   3.386   0.065   1.769
 1515MeO      C 9085   1.676   2.681   4.642
 1515MeO     HA 9086   1.678   2.611   4.725
 1515MeO     HB 9087   1.736   2.641   4.561
 1515MeO     HC 9088   1.572   2.691   4.608
 1515MeO      O 9089   1.726   2.807   4.682
 1515MeO      H 9090   1.817   2.794   4.711
 1516MeO      C 9091   4.749   2.491   4.384
 1516MeO     HA 9092   4.644   2.516   4.370
 1516MeO     HB 9093   4.756   2.403   4.447
 1516MeO     HC 9094   4.793   2.468   4.287
 1516MeO      O 9095   4.818   2.600   4.444
 1516MeO      H 9096   4.810   2.675   4.384
 1517MeO      C 9097   1.264   3.602   0.313
 1517MeO     HA 9098   1.275   3.525   0.389
 1517MeO     HB 9099   1.334   3.581   0.232
 1517MeO     HC 9100   1.163   3.598   0.273
 1517MeO      O 9101   1.290   3.730   0.368
 1517MeO      H 9102   1.374   3.725   0.415
 1518MeO      C 9103   2.316   4.644   3.604
 1518MeO     HA 9104   2.410   4.590   3.612
 1518MeO     HB 9105   2.242   4.581   3.555
 1518MeO     HC 9106   2.332   4.733   3.543
 1518MeO      O 9107   2.270   4.682   3.733
 1518MeO      H 9108   2.338   4.738   3.772
 1519MeO      C 9109   4.896   0.573   4.620
 1519MeO     HA 9110   4.877   0.511   4.708
 1519MeO     HB 9111   4.848   0.669   4.635
 1519MeO     HC 9112   0.078   0.588   4.612
 1519MeO      O 9113   4.847   0.509   4.504
 1519MeO      H 9114   4.895   0.425   4.497
 1520MeO      C 9115   3.509   3.589   2.494
 1520MeO     HA 9116   3.589   3.634   2.553
 1520MeO     HB 9117   3.499   3.645   2.402
 1520MeO     HC 9118   3.538   3.486   2.470
 1520MeO      O 9119   3.388   3.592   2.566
 1520MeO      H 9120   3.373   3.684   2.589
 1521MeO      C 9121   2.798   1.454   0.522
 1521MeO     HA 9122   2.752   1.376   0.463
 1521MeO     HB 9123   2.860   1.515   0.457
 1521MeO     HC 9124   2.720   1.517   0.565
 1521MeO      O 9125   2.877   1.397   0.625
 1521MeO      H 9126   2.945   1.343   0.581
 1522MeO      C 9127   4.526   4.047   4.187
 1522MeO     HA 9128   4.622   4.009   4.155
 1522MeO     HB 9129   4.531   4.069   4.294
 1522MeO     HC 9130   4.506   4.139   4.133
 1522MeO      O 9131   4.424   3.952   4.160
 1522MeO      H 9132   4.437   3.927   4.067
 1523MeO      C 9133   4.681   0.906   3.607
 1523MeO     HA 9134   4.786   0.885   3.584
 1523MeO     HB 9135   4.676   0.997   3.666
 1523MeO     HC 9136   4.642   0.824   3.667
 1523MeO      O 9137   4.606   0.918   3.488
 1523MeO      H 9138   4.619   0.836   3.438
 1524MeO      C 9139   0.709   2.246   2.695
 1524MeO     HA 9140   0.802   2.288   2.657
 1524MeO     HB 9141   0.730   2.145   2.730
 1524MeO     HC 9142   0.676   2.305   2.780
 1524MeO      O 9143   0.609   2.244   2.596
 1524MeO      H 9144   0.532   2.202   2.635
 1525MeO      C 9145   3.745   2.141   0.217
 1525MeO     HA 9146   3.757   2.090   0.312
 1525MeO     HB 9147   3.647   2.188   0.215
 1525MeO     HC 9148   3.748   2.066   0.138
 1525MeO      O 9149   3.847   2.236   0.199
 1525MeO      H 9150   3.930   2.186   0.198
 1526MeO      C 9151   3.414   0.305   2.942
 1526MeO     HA 9152   3.422   0.354   2.845
 1526MeO     HB 9153   3.510   0.311   2.993
 1526MeO     HC 9154   3.340   0.358   3.002
 1526MeO      O 9155   3.375   0.170   2.926
 1526MeO      H 9156   3.368   0.132   3.014
 1527MeO      C 9157   0.557   2.212   3.682
 1527MeO     HA 9158   0.582   2.202   3.576
 1527MeO     HB 9159   0.470   2.278   3.691
 1527MeO     HC 9160   0.641   2.258   3.734
 1527MeO      O 9161   0.528   2.085   3.737
 1527MeO      H 9162   0.454   2.048   3.687
 1528MeO      C 9163   1.114   3.020   0.761
 1528MeO     HA 9164   1.161   3.117   0.745
 1528MeO     HB 9165   1.078   2.983   0.665
 1528MeO     HC 9166   1.029   3.034   0.827
 1528MeO      O 9167   1.207   2.929   0.817
 1528MeO      H 9168   1.280   2.923   0.754
 1529MeO      C 9169   1.902   2.010   3.262
 1529MeO     HA 9170   1.885   2.101   3.205
 1529MeO     HB 9171   1.990   1.960   3.223
 1529MeO     HC 9172   1.816   1.944   3.249
 1529MeO      O 9173   1.919   2.040   3.399
 1529MeO      H 9174   1.995   2.100   3.406
 1530MeO      C 9175   2.649   3.399   2.332
 1530MeO     HA 9176   2.653   3.454   2.238
 1530MeO     HB 9177   2.628   3.470   2.412
 1530MeO     HC 9178   2.567   3.328   2.327
 1530MeO      O 9179   2.771   3.332   2.357
 1530MeO      H 9180   2.841   3.398   2.354
 1531MeO      C 9181   1.250   3.420   3.422
 1531MeO     HA 9182   1.349   3.466   3.412
 1531MeO     HB 9183   1.254   3.347   3.503
 1531MeO     HC 9184   1.226   3.367   3.330
 1531MeO      O 9185   1.152   3.518   3.449
 1531MeO      H 9186   1.068   3.471   3.459
 1532MeO      C 9187   2.976   4.060   0.758
 1532MeO     HA 9188   2.945   4.132   0.682
 1532MeO     HB 9189   2.953   3.960   0.723
 1532MeO     HC 9190   2.917   4.079   0.849
 1532MeO      O 9191   3.114   4.073   0.786
 1532MeO      H 9192   3.134   4.009   0.856
 1533MeO      C 9193   0.969   3.941   0.889
 1533MeO     HA 9194   1.055   3.970   0.950
 1533MeO     HB 9195   0.943   3.838   0.912
 1533MeO     HC 9196   0.885   4.005   0.916
 1533MeO      O 9197   1.000   3.955   0.752
 1533MeO      H 9198   1.024   4.048   0.738
 1534MeO      C 9199   3.826   3.788   4.095
 1534MeO     HA 9200   3.796   3.787   3.991
 1534MeO     HB 9201   3.868   3.886   4.119
 1534MeO     HC 9202   3.738   3.773   4.158
 1534MeO      O 9203   3.921   3.687   4.121
 1534MeO      H 9204   3.944   3.694   4.215
 1535MeO      C 9205   2.925   3.490   4.377
 1535MeO     HA 9206   2.823   3.462   4.351
 1535MeO     HB 9207   2.922   3.565   4.455
 1535MeO     HC 9208   2.977   3.402   4.416
 1535MeO      O 9209   2.994   3.541   4.263
 1535MeO      H 9210   3.082   3.567   4.293
 1536MeO      C 9211   1.737   1.927   4.904
 1536MeO     HA 9212   1.687   1.995   4.835
 1536MeO     HB 9213   1.689   1.933   0.076
 1536MeO     HC 9214   1.725   1.825   4.866
 1536MeO      O 9215   1.874   1.959   4.914
 1536MeO      H 9216   1.912   1.900   0.054
 1537MeO      C 9217   4.179   0.734   0.864
 1537MeO     HA 9218   4.193   0.836   0.900
 1537MeO     HB 9219   4.240   0.721   0.775
 1537MeO     HC 9220   4.074   0.722   0.837
 1537MeO      O 9221   4.217   0.641   0.963
 1537MeO      H 9222   4.310   0.657   0.982
 1538MeO      C 9223   2.849   0.885   1.675
 1538MeO     HA 9224   2.898   0.790   1.651
 1538MeO     HB 9225   2.775   0.905   1.598
 1538MeO     HC 9226   2.924   0.964   1.674
 1538MeO      O 9227   2.787   0.877   1.802
 1538MeO      H 9228   2.727   0.802   1.798
 1539MeO      C 9229   2.779   4.380   2.861
 1539MeO     HA 9230   2.795   4.487   2.847
 1539MeO     HB 9231   2.713   4.366   2.946
 1539MeO     HC 9232   2.730   4.340   2.772
 1539MeO      O 9233   2.902   4.314   2.883
 1539MeO      H 9234   2.943   4.357   2.959
 1540MeO      C 9235   2.323   2.309   2.702
 1540MeO     HA 9236   2.279   2.406   2.726
 1540MeO     HB 9237   2.376   2.272   2.790
 1540MeO     HC 9238   2.395   2.322   2.621
 1540MeO      O 9239   2.221   2.218   2.665
 1540MeO      H 9240   2.156   2.220   2.736
 1541MeO      C 9241   1.305   1.973   1.288
 1541MeO     HA 9242   1.292   2.050   1.363
 1541MeO     HB 9243   1.313   1.876   1.337
 1541MeO     HC 9244   1.218   1.973   1.223
 1541MeO      O 9245   1.422   1.999   1.211
 1541MeO      H 9246   1.407   2.083   1.167
 1542MeO      C 9247   3.643   2.500   3.631
 1542MeO     HA 9248   3.618   2.410   3.686
 1542MeO     HB 9249   3.697   2.472   3.540
 1542MeO     HC 9250   3.709   2.561   3.693
 1542MeO      O 9251   3.526   2.572   3.599
 1542MeO      H 9252   3.479   2.586   3.682
 1543MeO      C 9253   1.031   0.500   1.733
 1543MeO     HA 9254   0.963   0.449   1.665
 1543MeO     HB 9255   1.118   0.435   1.750
 1543MeO     HC 9256   1.065   0.592   1.686
 1543MeO      O 9257   0.966   0.527   1.855
 1543MeO      H 9258   0.943   0.442   1.894
 1544MeO      C 9259   1.233   3.234   0.101
 1544MeO     HA 9260   1.219   3.304   0.183
 1544MeO     HB 9261   1.195   3.136   0.131
 1544MeO     HC 9262   1.173   3.268   0.016
 1544MeO      O 9263   1.369   3.226   0.064
 1544MeO      H 9264   1.372   3.170   4.910
 1545MeO      C 9265   4.546   1.998   2.653
 1545MeO     HA 9266   4.540   1.912   2.720
 1545MeO     HB 9267   4.569   2.086   2.712
 1545MeO     HC 9268   4.627   1.981   2.583
 1545MeO      O 9269   4.424   2.014   2.583
 1545MeO      H 9270   4.409   1.933   2.533
 1546MeO      C 9271   4.459   1.731   0.375
 1546MeO     HA 9272   4.419   1.785   0.289
 1546MeO     HB 9273   4.511   1.642   0.339
 1546MeO     HC 9274   4.376   1.699   0.438
 1546MeO      O 9275   4.547   1.814   0.448
 1546MeO      H 9276   4.496   1.890   0.480
 1547MeO      C 9277   3.671   2.217   2.048
 1547MeO     HA 9278   3.563   2.208   2.038
 1547MeO     HB 9279   3.700   2.318   2.019
 1547MeO     HC 9280   3.718   2.146   1.979
 1547MeO      O 9281   3.711   2.191   2.181
 1547MeO      H 9282   3.670   2.259   2.237
 1548MeO      C 9283   2.834   2.873   3.709
 1548MeO     HA 9284   2.766   2.833   3.634
 1548MeO     HB 9285   2.777   2.894   3.800
 1548MeO     HC 9286   2.910   2.797   3.732
 1548MeO      O 9287   2.896   2.991   3.661
 1548MeO      H 9288   2.826   3.053   3.641
 1549MeO      C 9289   4.384   2.788   0.327
 1549MeO     HA 9290   4.308   2.804   0.251
 1549MeO     HB 9291   4.479   2.768   0.278
 1549MeO     HC 9292   4.356   2.700   0.385
 1549MeO      O 9293   4.394   2.900   0.412
 1549MeO      H 9294   4.461   2.878   0.479
 1550MeO      C 9295   2.990   3.669   0.813
 1550MeO     HA 9296   3.058   3.601   0.864
 1550MeO     HB 9297   3.042   3.714   0.729
 1550MeO     HC 9298   2.962   3.747   0.883
 1550MeO      O 9299   2.875   3.599   0.770
 1550MeO      H 9300   2.840   3.555   0.848
 1551MeO      C 9301   3.272   3.139   1.009
 1551MeO     HA 9302   3.378   3.114   1.014
 1551MeO     HB 9303   3.251   3.220   1.079
 1551MeO     HC 9304   3.215   3.052   1.040
 1551MeO      O 9305   3.237   3.177   0.878
 1551MeO      H 9306   3.145   3.207   0.881
 1552MeO      C 9307   2.384   2.584   4.522
 1552MeO     HA 9308   2.283   2.621   4.504
 1552MeO     HB 9309   2.452   2.669   4.527
 1552MeO     HC 9310   2.386   2.532   4.618
 1552MeO      O 9311   2.423   2.497   4.417
 1552MeO      H 9312   2.417   2.547   4.336
 1553MeO      C 9313   4.885   4.446   1.016
 1553MeO     HA 9314   0.055   4.496   1.033
 1553MeO     HB 9315   4.883   4.355   1.076
 1553MeO     HC 9316   4.879   4.418   0.911
 1553MeO      O 9317   4.778   4.531   1.050
 1553MeO      H 9318   4.789   4.612   0.998
 1554MeO      C 9319   2.857   4.651   3.927
 1554MeO     HA 9320   2.875   4.573   4.001
 1554MeO     HB 9321   2.943   4.656   3.860
 1554MeO     HC 9322   2.848   4.746   3.980
 1554MeO      O 9323   2.738   4.624   3.855
 1554MeO      H 9324   2.668   4.620   3.920
 1555MeO      C 9325   3.826   3.704   1.061
 1555MeO     HA 9326   3.722   3.714   1.091
 1555MeO     HB 9327   3.885   3.684   1.150
 1555MeO     HC 9328   3.834   3.618   0.994
 1555MeO      O 9329   3.871   3.821   0.998
 1555MeO      H 9330   3.864   3.893   1.063
 1556MeO      C 9331   3.970   2.303   3.668
 1556MeO     HA 9332   4.036   2.257   3.742
 1556MeO     HB 9333   3.960   2.409   3.692
 1556MeO     HC 9334   4.014   2.293   3.569
 1556MeO      O 9335   3.843   2.241   3.672
 1556MeO      H 9336   3.808   2.254   3.761
 1557MeO      C 9337   3.256   0.016   3.258
 1557MeO     HA 9338   3.219   0.090   3.329
 1557MeO     HB 9339   3.174   4.909   3.195
 1557MeO     HC 9340   3.293   4.855   3.314
 1557MeO      O 9341   3.361   0.071   3.181
 1557MeO      H 9342   3.433   0.093   3.240
 1558MeO      C 9343   3.310   0.357   3.461
 1558MeO     HA 9344   3.268   0.267   3.507
 1558MeO     HB 9345   3.279   0.360   3.357
 1558MeO     HC 9346   3.269   0.444   3.513
 1558MeO      O 9347   3.451   0.355   3.473
 1558MeO      H 9348   3.469   0.336   3.566
 1559MeO      C 9349   1.716   1.718   2.930
 1559MeO     HA 9350   1.610   1.741   2.940
 1559MeO     HB 9351   1.753   1.764   2.839
 1559MeO     HC 9352   1.726   1.610   2.921
 1559MeO      O 9353   1.787   1.764   3.042
 1559MeO      H 9354   1.753   1.718   3.120
 1560MeO      C 9355   1.392   1.551   1.115
 1560MeO     HA 9356   1.499   1.535   1.129
 1560MeO     HB 9357   1.337   1.474   1.168
 1560MeO     HC 9358   1.366   1.648   1.158
 1560MeO      O 9359   1.359   1.548   0.978
 1560MeO      H 9360   1.382   1.460   0.945
 1561MeO      C 9361   2.522   1.270   1.877
 1561MeO     HA 9362   2.624   1.281   1.842
 1561MeO     HB 9363   2.498   1.164   1.879
 1561MeO     HC 9364   2.455   1.319   1.807
 1561MeO      O 9365   2.508   1.326   2.006
 1561MeO      H 9366   2.567   1.277   2.065
 1562MeO      C 9367   3.252   3.871   3.070
 1562MeO     HA 9368   3.217   3.795   3.000
 1562MeO     HB 9369   3.291   3.821   3.158
 1562MeO     HC 9370   3.333   3.928   3.023
 1562MeO      O 9371   3.146   3.958   3.105
 1562MeO      H 9372   3.110   3.994   3.023
 1563MeO      C 9373   0.038   3.129   3.633
 1563MeO     HA 9374   0.049   3.237   3.636
 1563MeO     HB 9375   0.098   3.086   3.713
 1563MeO     HC 9376   4.859   3.103   3.650
 1563MeO      O 9377   0.082   3.079   3.508
 1563MeO      H 9378   0.173   3.109   3.497
 1564MeO      C 9379   0.683   4.551   4.134
 1564MeO     HA 9380   0.636   4.548   4.036
 1564MeO     HB 9381   0.666   4.456   4.185
 1564MeO     HC 9382   0.791   4.564   4.120
 1564MeO      O 9383   0.630   4.658   4.210
 1564MeO      H 9384   0.649   4.739   4.161
 1565MeO      C 9385   1.895   4.332   4.350
 1565MeO     HA 9386   1.973   4.286   4.289
 1565MeO     HB 9387   1.801   4.325   4.295
 1565MeO     HC 9388   1.920   4.437   4.364
 1565MeO      O 9389   1.884   4.266   4.475
 1565MeO      H 9390   1.968   4.280   4.521
 1566MeO      C 9391   2.439   2.810   0.836
 1566MeO     HA 9392   2.429   2.852   0.936
 1566MeO     HB 9393   2.346   2.826   0.782
 1566MeO     HC 9394   2.456   2.703   0.845
 1566MeO      O 9395   2.546   2.871   0.767
 1566MeO      H 9396   2.550   2.832   0.679
 1567MeO      C 9397   4.158   0.537   3.055
 1567MeO     HA 9398   4.051   0.532   3.039
 1567MeO     HB 9399   4.198   0.622   2.999
 1567MeO     HC 9400   4.204   0.446   3.017
 1567MeO      O 9401   4.186   0.553   3.192
 1567MeO      H 9402   4.148   0.639   3.218
 1568MeO      C 9403   3.624   2.155   0.604
 1568MeO     HA 9404   3.685   2.085   0.547
 1568MeO     HB 9405   3.682   2.188   0.690
 1568MeO     HC 9406   3.536   2.102   0.640
 1568MeO      O 9407   3.587   2.265   0.524
 1568MeO      H 9408   3.669   2.310   0.500
 1569MeO      C 9409   0.150   4.519   1.345
 1569MeO     HA 9410   0.176   4.466   1.436
 1569MeO     HB 9411   0.142   4.625   1.367
 1569MeO     HC 9412   0.053   4.482   1.310
 1569MeO      O 9413   0.248   4.495   1.246
 1569MeO      H 9414   0.250   4.400   1.230
 1570MeO      C 9415   4.183   2.867   2.401
 1570MeO     HA 9416   4.183   2.822   2.301
 1570MeO     HB 9417   4.216   2.970   2.392
 1570MeO     HC 9418   4.081   2.867   2.439
 1570MeO      O 9419   4.268   2.795   2.487
 1570MeO      H 9420   4.262   2.839   2.573
 1571MeO      C 9421   4.604   0.603   4.037
 1571MeO     HA 9422   4.695   0.576   4.092
 1571MeO     HB 9423   4.520   0.596   4.105
 1571MeO     HC 9424   4.590   0.531   3.957
 1571MeO      O 9425   4.616   0.733   3.985
 1571MeO      H 9426   4.696   0.733   3.930
 1572MeO      C 9427   3.097   1.729   3.121
 1572MeO     HA 9428   3.019   1.805   3.121
 1572MeO     HB 9429   3.170   1.753   3.043
 1572MeO     HC 9430   3.052   1.633   3.098
 1572MeO      O 9431   3.159   1.723   3.247
 1572MeO      H 9432   3.090   1.712   3.312
 1573MeO      C 9433   2.635   0.870   0.473
 1573MeO     HA 9434   2.677   0.925   0.389
 1573MeO     HB 9435   2.615   0.940   0.554
 1573MeO     HC 9436   2.708   0.797   0.508
 1573MeO      O 9437   2.516   0.804   0.435
 1573MeO      H 9438   2.483   0.758   0.513
 1574MeO      C 9439   3.793   4.052   1.284
 1574MeO     HA 9440   3.853   4.050   1.375
 1574MeO     HB 9441   3.715   3.976   1.292
 1574MeO     HC 9442   3.745   4.150   1.276
 1574MeO      O 9443   3.874   4.029   1.171
 1574MeO      H 9444   3.939   4.100   1.169
 1575MeO      C 9445   2.179   0.737   2.273
 1575MeO     HA 9446   2.101   0.743   2.348
 1575MeO     HB 9447   2.252   0.816   2.294
 1575MeO     HC 9448   2.229   0.641   2.281
 1575MeO      O 9449   2.125   0.755   2.144
 1575MeO      H 9450   2.081   0.841   2.143
 1576MeO      C 9451   1.615   0.705   1.334
 1576MeO     HA 9452   1.642   0.811   1.329
 1576MeO     HB 9453   1.657   0.654   1.247
 1576MeO     HC 9454   1.507   0.697   1.329
 1576MeO      O 9455   1.664   0.647   1.453
 1576MeO      H 9456   1.641   0.554   1.451
 1577MeO      C 9457   1.885   4.859   3.988
 1577MeO     HA 9458   1.922   4.864   4.090
 1577MeO     HB 9459   1.776   4.862   3.991
 1577MeO     HC 9460   1.916   4.764   3.944
 1577MeO      O 9461   1.935   0.042   3.913
 1577MeO      H 9462   2.031   0.034   3.913
 1578MeO      C 9463   4.447   1.147   3.285
 1578MeO     HA 9464   4.404   1.052   3.254
 1578MeO     HB 9465   4.433   1.219   3.205
 1578MeO     HC 9466   4.394   1.182   3.373
 1578MeO      O 9467   4.585   1.131   3.313
 1578MeO      H 9468   4.591   1.062   3.381
 1579MeO      C 9469   4.705   2.788   1.775
 1579MeO     HA 9470   4.691   2.821   1.877
 1579MeO     HB 9471   4.646   2.697   1.759
 1579MeO     HC 9472   4.810   2.763   1.761
 1579MeO      O 9473   4.666   2.889   1.684
 1579MeO      H 9474   4.719   2.967   1.704
 1580MeO      C 9475   2.684   0.207   3.333
 1580MeO     HA 9476   2.654   0.103   3.320
 1580MeO     HB 9477   2.786   0.219   3.296
 1580MeO     HC 9478   2.618   0.269   3.273
 1580MeO      O 9479   2.675   0.243   3.470
 1580MeO      H 9480   2.584   0.230   3.496
 1581MeO      C 9481   1.498   2.163   0.452
 1581MeO     HA 9482   1.421   2.152   0.376
 1581MeO     HB 9483   1.452   2.208   0.541
 1581MeO     HC 9484   1.536   2.064   0.479
 1581MeO      O 9485   1.603   2.245   0.405
 1581MeO      H 9486   1.563   2.329   0.381
 1582MeO      C 9487   4.471   2.536   0.745
 1582MeO     HA 9488   4.370   2.575   0.731
 1582MeO     HB 9489   4.535   2.572   0.665
 1582MeO     HC 9490   4.509   2.573   0.840
 1582MeO      O 9491   4.469   2.394   0.747
 1582MeO      H 9492   4.406   2.369   0.816
 1583MeO      C 9493   3.551   4.589   3.966
 1583MeO     HA 9494   3.540   4.555   4.069
 1583MeO     HB 9495   3.556   4.501   3.901
 1583MeO     HC 9496   3.645   4.644   3.956
 1583MeO      O 9497   3.443   4.670   3.928
 1583MeO      H 9498   3.456   4.694   3.836
 1584MeO      C 9499   0.749   0.849   0.103
 1584MeO     HA 9500   0.811   0.765   0.071
 1584MeO     HB 9501   0.744   0.921   0.021
 1584MeO     HC 9502   0.648   0.812   0.122
 1584MeO      O 9503   0.802   0.909   0.219
 1584MeO      H 9504   0.742   0.981   0.242
 1585MeO      C 9505   0.918   3.291   1.783
 1585MeO     HA 9506   0.944   3.192   1.745
 1585MeO     HB 9507   1.002   3.358   1.764
 1585MeO     HC 9508   0.903   3.283   1.891
 1585MeO      O 9509   0.801   3.338   1.721
 1585MeO      H 9510   0.821   3.342   1.626
 1586MeO      C 9511   4.259   4.658   1.161
 1586MeO     HA 9512   4.232   4.749   1.107
 1586MeO     HB 9513   4.232   4.572   1.101
 1586MeO     HC 9514   4.367   4.658   1.176
 1586MeO      O 9515   4.193   4.656   1.286
 1586MeO      H 9516   4.219   4.737   1.333
 1587MeO      C 9517   1.214   2.885   0.363
 1587MeO     HA 9518   1.290   2.826   0.414
 1587MeO     HB 9519   1.188   2.969   0.427
 1587MeO     HC 9520   1.255   2.923   0.270
 1587MeO      O 9521   1.100   2.805   0.338
 1587MeO      H 9522   1.035   2.862   0.294
 1588MeO      C 9523   4.235   4.342   1.458
 1588MeO     HA 9524   4.307   4.317   1.380
 1588MeO     HB 9525   4.135   4.324   1.420
 1588MeO     HC 9526   4.252   4.276   1.543
 1588MeO      O 9527   4.249   4.477   1.496
 1588MeO      H 9528   4.231   4.531   1.419
 1589MeO      C 9529   1.502   2.215   0.075
 1589MeO     HA 9530   1.575   2.161   0.135
 1589MeO     HB 9531   1.555   2.283   0.008
 1589MeO     HC 9532   1.439   2.274   0.142
 1589MeO      O 9533   1.423   2.125   0.002
 1589MeO      H 9534   1.379   2.068   0.066
 1590MeO      C 9535   0.428   0.593   0.663
 1590MeO     HA 9536   0.375   0.688   0.664
 1590MeO     HB 9537   0.389   0.532   0.582
 1590MeO     HC 9538   0.409   0.542   0.758
 1590MeO      O 9539   0.567   0.614   0.648
 1590MeO      H 9540   0.596   0.664   0.725
 1591MeO      C 9541   4.406   4.028   0.793
 1591MeO     HA 9542   4.366   4.125   0.823
 1591MeO     HB 9543   4.369   4.006   0.693
 1591MeO     HC 9544   4.515   4.035   0.789
 1591MeO      O 9545   4.366   3.928   0.883
 1591MeO      H 9546   4.269   3.925   0.882
 1592MeO      C 9547   0.452   4.513   4.511
 1592MeO     HA 9548   0.461   4.407   4.486
 1592MeO     HB 9549   0.535   4.566   4.465
 1592MeO     HC 9550   0.359   4.551   4.468
 1592MeO      O 9551   0.453   4.531   4.651
 1592MeO      H 9552   0.539   4.501   4.682
 1593MeO      C 9553   4.120   3.329   1.574
 1593MeO     HA 9554   4.040   3.401   1.589
 1593MeO     HB 9555   4.095   3.237   1.627
 1593MeO     HC 9556   4.212   3.370   1.615
 1593MeO      O 9557   4.136   3.302   1.436
 1593MeO      H 9558   4.153   3.386   1.393
 1594MeO      C 9559   1.574   3.855   0.556
 1594MeO     HA 9560   1.627   3.833   0.649
 1594MeO     HB 9561   1.642   3.907   0.489
 1594MeO     HC 9562   1.490   3.921   0.578
 1594MeO      O 9563   1.529   3.735   0.496
 1594MeO      H 9564   1.607   3.681   0.480
 1595MeO      C 9565   4.008   2.919   4.167
 1595MeO     HA 9566   4.100   2.864   4.145
 1595MeO     HB 9567   3.931   2.849   4.198
 1595MeO     HC 9568   4.028   2.988   4.249
 1595MeO      O 9569   3.966   2.991   4.053
 1595MeO      H 9570   3.894   3.048   4.081
 1596MeO      C 9571   3.961   0.625   0.338
 1596MeO     HA 9572   4.019   0.699   0.393
 1596MeO     HB 9573   3.945   0.539   0.402
 1596MeO     HC 9574   3.864   0.670   0.314
 1596MeO      O 9575   4.029   0.588   0.219
 1596MeO      H 9576   4.045   0.671   0.171
 1597MeO      C 9577   4.721   3.023   3.055
 1597MeO     HA 9578   4.699   2.965   3.145
 1597MeO     HB 9579   4.829   3.027   3.043
 1597MeO     HC 9580   4.684   3.125   3.070
 1597MeO      O 9581   4.662   2.964   2.942
 1597MeO      H 9582   4.697   2.875   2.935
 1598MeO      C 9583   0.790   2.869   2.759
 1598MeO     HA 9584   0.752   2.789   2.822
 1598MeO     HB 9585   0.771   2.843   2.655
 1598MeO     HC 9586   0.737   2.961   2.782
 1598MeO      O 9587   0.929   2.887   2.780
 1598MeO      H 9588   0.955   2.961   2.723
 1599MeO      C 9589   3.270   3.456   2.835
 1599MeO     HA 9590   3.325   3.549   2.852
 1599MeO     HB 9591   3.167   3.481   2.807
 1599MeO     HC 9592   3.316   3.403   2.751
 1599MeO      O 9593   3.272   3.375   2.950
 1599MeO      H 9594   3.227   3.293   2.927
 1600MeO      C 9595   1.773   3.515   0.559
 1600MeO     HA 9596   1.787   3.409   0.535
 1600MeO     HB 9597   1.862   3.550   0.611
 1600MeO     HC 9598   1.688   3.524   0.627
 1600MeO      O 9599   1.751   3.589   0.441
 1600MeO      H 9600   1.830   3.578   0.387
 1601MeO      C 9601   3.612   1.820   4.915
 1601MeO     HA 9602   3.593   1.927   4.902
 1601MeO     HB 9603   3.610   1.798   0.096
 1601MeO     HC 9604   3.711   1.797   4.877
 1601MeO      O 9605   3.514   1.744   4.848
 1601MeO      H 9606   3.529   1.652   4.873
 1602MeO      C 9607   2.109   1.388   1.806
 1602MeO     HA 9608   2.183   1.321   1.850
 1602MeO     HB 9609   2.076   1.459   1.882
 1602MeO     HC 9610   2.022   1.329   1.775
 1602MeO      O 9611   2.163   1.457   1.695
 1602MeO      H 9612   2.094   1.513   1.660
 1603MeO      C 9613   4.750   4.434   3.044
 1603MeO     HA 9614   4.813   4.474   3.123
 1603MeO     HB 9615   4.763   4.326   3.041
 1603MeO     HC 9616   4.783   4.475   2.949
 1603MeO      O 9617   4.614   4.465   3.066
 1603MeO      H 9618   4.566   4.423   2.994
 1604MeO      C 9619   3.640   0.389   2.336
 1604MeO     HA 9620   3.686   0.487   2.338
 1604MeO     HB 9621   3.556   0.389   2.405
 1604MeO     HC 9622   3.603   0.369   2.236
 1604MeO      O 9623   3.735   0.290   2.374
 1604MeO      H 9624   3.767   0.316   2.462
 1605MeO      C 9625   4.458   1.874   4.483
 1605MeO     HA 9626   4.540   1.805   4.505
 1605MeO     HB 9627   4.367   1.815   4.470
 1605MeO     HC 9628   4.480   1.926   4.390
 1605MeO      O 9629   4.443   1.965   4.590
 1605MeO      H 9630   4.422   1.913   4.668
 1606MeO      C 9631   4.514   0.796   4.727
 1606MeO     HA 9632   4.596   0.747   4.674
 1606MeO     HB 9633   4.451   0.719   4.771
 1606MeO     HC 9634   4.556   0.857   4.807
 1606MeO      O 9635   4.440   0.876   4.637
 1606MeO      H 9636   4.405   0.816   4.570
 1607MeO      C 9637   1.073   2.546   1.318
 1607MeO     HA 9638   1.053   2.605   1.407
 1607MeO     HB 9639   1.159   2.482   1.338
 1607MeO     HC 9640   1.099   2.614   1.236
 1607MeO      O 9641   0.960   2.468   1.284
 1607MeO      H 9642   0.943   2.410   1.359
 1608MeO      C 9643   0.399   3.442   3.297
 1608MeO     HA 9644   0.399   3.545   3.260
 1608MeO     HB 9645   0.367   3.376   3.217
 1608MeO     HC 9646   0.501   3.415   3.326
 1608MeO      O 9647   0.312   3.429   3.408
 1608MeO      H 9648   0.321   3.338   3.440
 1609MeO      C 9649   3.880   1.228   0.876
 1609MeO     HA 9650   3.976   1.269   0.847
 1609MeO     HB 9651   3.828   1.301   0.938
 1609MeO     HC 9652   3.821   1.211   0.785
 1609MeO      O 9653   3.897   1.107   0.946
 1609MeO      H 9654   3.947   1.127   1.026
 1610MeO      C 9655   2.191   3.064   1.707
 1610MeO     HA 9656   2.100   3.015   1.673
 1610MeO     HB 9657   2.178   3.172   1.697
 1610MeO     HC 9658   2.206   3.040   1.812
 1610MeO      O 9659   2.302   3.021   1.631
 1610MeO      H 9660   2.319   2.929   1.654
 1611MeO      C 9661   2.217   2.044   3.797
 1611MeO     HA 9662   2.272   2.132   3.765
 1611MeO     HB 9663   2.271   1.955   3.765
 1611MeO     HC 9664   2.119   2.045   3.749
 1611MeO      O 9665   2.202   2.044   3.938
 1611MeO      H 9666   2.153   2.124   3.961
 1612MeO      C 9667   0.376   3.592   1.833
 1612MeO     HA 9668   0.305   3.668   1.865
 1612MeO     HB 9669   0.449   3.577   1.913
 1612MeO     HC 9670   0.429   3.628   1.745
 1612MeO      O 9671   0.311   3.470   1.804
 1612MeO      H 9672   0.379   3.410   1.773
 1613MeO      C 9673   4.765   1.106   4.196
 1613MeO     HA 9674   4.715   1.203   4.197
 1613MeO     HB 9675   4.697   1.033   4.151
 1613MeO     HC 9676   4.784   1.076   4.299
 1613MeO      O 9677   4.885   1.113   4.122
 1613MeO      H 9678   4.861   1.141   4.033
 1614MeO      C 9679   3.597   3.211   2.839
 1614MeO     HA 9680   3.497   3.254   2.836
 1614MeO     HB 9681   3.653   3.260   2.919
 1614MeO     HC 9682   3.647   3.231   2.744
 1614MeO      O 9683   3.589   3.072   2.863
 1614MeO      H 9684   3.544   3.061   2.948
 1615MeO      C 9685   2.880   3.820   0.453
 1615MeO     HA 9686   2.794   3.885   0.461
 1615MeO     HB 9687   2.892   3.766   0.546
 1615MeO     HC 9688   2.862   3.748   0.373
 1615MeO      O 9689   2.997   3.895   0.425
 1615MeO      H 9690   3.070   3.832   0.419
 1616MeO      C 9691   2.017   4.705   0.166
 1616MeO     HA 9692   2.059   4.767   0.246
 1616MeO     HB 9693   1.961   4.623   0.211
 1616MeO     HC 9694   2.100   4.663   0.108
 1616MeO      O 9695   1.934   4.782   0.082
 1616MeO      H 9696   1.987   4.856   0.049
 1617MeO      C 9697   0.967   4.587   0.201
 1617MeO     HA 9698   0.945   4.490   0.155
 1617MeO     HB 9699   0.994   4.657   0.123
 1617MeO     HC 9700   0.877   4.623   0.251
 1617MeO      O 9701   1.073   4.574   0.294
 1617MeO      H 9702   1.148   4.540   0.244
 1618MeO      C 9703   1.770   0.724   2.222
 1618MeO     HA 9704   1.705   0.662   2.285
 1618MeO     HB 9705   1.712   0.757   2.136
 1618MeO     HC 9706   1.852   0.662   2.187
 1618MeO      O 9707   1.818   0.835   2.294
 1618MeO      H 9708   1.873   0.885   2.233
 1619MeO      C 9709   0.122   3.814   2.846
 1619MeO     HA 9710   0.173   3.722   2.821
 1619MeO     HB 9711   0.122   3.826   2.954
 1619MeO     HC 9712   0.019   3.806   2.811
 1619MeO      O 9713   0.186   3.924   2.785
 1619MeO      H 9714   0.278   3.923   2.813
 1620MeO      C 9715   4.229   1.419   2.977
 1620MeO     HA 9716   4.222   1.523   2.946
 1620MeO     HB 9717   4.128   1.382   2.994
 1620MeO     HC 9718   4.284   1.415   3.071
 1620MeO      O 9719   4.294   1.341   2.878
 1620MeO      H 9720   4.384   1.376   2.869
 1621MeO      C 9721   1.415   0.198   4.541
 1621MeO     HA 9722   1.323   0.162   4.586
 1621MeO     HB 9723   1.470   0.256   4.615
 1621MeO     HC 9724   1.476   0.112   4.512
 1621MeO      O 9725   1.387   0.278   4.428
 1621MeO      H 9726   1.330   0.350   4.458
 1622MeO      C 9727   3.782   2.992   1.115
 1622MeO     HA 9728   3.809   2.889   1.138
 1622MeO     HB 9729   3.723   2.994   1.023
 1622MeO     HC 9730   3.720   3.030   1.197
 1622MeO      O 9731   3.898   3.072   1.101
 1622MeO      H 9732   3.947   3.065   1.184
 1623MeO      C 9733   0.058   0.325   0.782
 1623MeO     HA 9734   0.059   0.259   0.695
 1623MeO     HB 9735   0.078   0.265   0.871
 1623MeO     HC 9736   4.885   0.370   0.790
 1623MeO      O 9737   0.157   0.424   0.766
 1623MeO      H 9738   0.132   0.474   0.687
 1624MeO      C 9739   1.342   4.522   0.029
 1624MeO     HA 9740   1.310   4.473   4.863
 1624MeO     HB 9741   1.450   4.510   0.039
 1624MeO     HC 9742   1.320   4.629   0.020
 1624MeO      O 9743   1.275   4.467   0.141
 1624MeO      H 9744   1.302   4.374   0.146
 1625MeO      C 9745   4.595   2.176   4.138
 1625MeO     HA 9746   4.622   2.227   4.230
 1625MeO     HB 9747   4.593   2.069   4.157
 1625MeO     HC 9748   4.496   2.208   4.109
 1625MeO      O 9749   4.688   2.206   4.035
 1625MeO      H 9750   4.656   2.163   3.955
 1626MeO      C 9751   3.772   4.204   3.720
 1626MeO     HA 9752   3.851   4.278   3.710
 1626MeO     HB 9753   3.753   4.161   3.621
 1626MeO     HC 9754   3.806   4.125   3.787
 1626MeO      O 9755   3.655   4.265   3.770
 1626MeO      H 9756   3.629   4.334   3.708
 1627MeO      C 9757   4.074   4.021   2.863
 1627MeO     HA 9758   4.036   4.108   2.916
 1627MeO     HB 9759   4.155   3.978   2.921
 1627MeO     HC 9760   4.114   4.054   2.766
 1627MeO      O 9761   3.970   3.927   2.845
 1627MeO      H 9762   3.930   3.914   2.932
 1628MeO      C 9763   4.079   2.576   3.375
 1628MeO     HA 9764   4.107   2.681   3.367
 1628MeO     HB 9765   4.153   2.525   3.437
 1628MeO     HC 9766   4.080   2.532   3.276
 1628MeO      O 9767   3.951   2.565   3.434
 1628MeO      H 9768   3.957   2.607   3.521
 1629MeO      C 9769   4.423   3.078   4.467
 1629MeO     HA 9770   4.499   3.011   4.427
 1629MeO     HB 9771   4.353   3.103   4.387
 1629MeO     HC 9772   4.472   3.170   4.499
 1629MeO      O 9773   4.355   3.019   4.575
 1629MeO      H 9774   4.291   3.083   4.606
 1630MeO      C 9775   0.982   3.067   2.136
 1630MeO     HA 9776   0.925   3.046   2.226
 1630MeO     HB 9777   0.915   3.111   2.062
 1630MeO     HC 9778   1.020   2.973   2.096
 1630MeO      O 9779   1.089   3.155   2.163
 1630MeO      H 9780   1.136   3.167   2.079
 1631MeO      C 9781   2.469   3.120   4.490
 1631MeO     HA 9782   2.516   3.024   4.466
 1631MeO     HB 9783   2.538   3.200   4.462
 1631MeO     HC 9784   2.378   3.130   4.432
 1631MeO      O 9785   2.440   3.127   4.628
 1631MeO      H 9786   2.524   3.114   4.675
 1632MeO      C 9787   4.916   0.184   4.578
 1632MeO     HA 9788   4.864   0.242   4.654
 1632MeO     HB 9789   0.063   0.119   4.626
 1632MeO     HC 9790   4.843   0.122   4.526
 1632MeO      O 9791   0.055   0.270   4.486
 1632MeO      H 9792   0.104   0.214   4.426
 1633MeO      C 9793   2.894   2.300   1.441
 1633MeO     HA 9794   2.976   2.250   1.492
 1633MeO     HB 9795   2.937   2.379   1.378
 1633MeO     HC 9796   2.843   2.228   1.377
 1633MeO      O 9797   2.805   2.356   1.535
 1633MeO      H 9798   2.855   2.418   1.588
 1634MeO      C 9799   3.230   1.159   1.460
 1634MeO     HA 9800   3.172   1.103   1.387
 1634MeO     HB 9801   3.188   1.260   1.467
 1634MeO     HC 9802   3.332   1.167   1.424
 1634MeO      O 9803   3.227   1.095   1.586
 1634MeO      H 9804   3.258   1.005   1.574
 1635MeO      C 9805   4.252   3.668   0.665
 1635MeO     HA 9806   4.340   3.732   0.665
 1635MeO     HB 9807   4.180   3.710   0.736
 1635MeO     HC 9808   4.280   3.569   0.700
 1635MeO      O 9809   4.194   3.661   0.537
 1635MeO      H 9810   4.114   3.609   0.546
 1636MeO      C 9811   2.459   4.698   4.179
 1636MeO     HA 9812   2.522   4.722   4.265
 1636MeO     HB 9813   2.391   4.618   4.210
 1636MeO     HC 9814   2.400   4.786   4.154
 1636MeO      O 9815   2.538   4.655   4.070
 1636MeO      H 9816   2.583   4.575   4.101
 1637MeO      C 9817   0.483   0.576   3.971
 1637MeO     HA 9818   0.471   0.469   3.958
 1637MeO     HB 9819   0.388   0.626   3.952
 1637MeO     HC 9820   0.513   0.595   4.074
 1637MeO      O 9821   0.582   0.625   3.882
 1637MeO      H 9822   0.665   0.581   3.904
 1638MeO      C 9823   3.388   2.913   1.291
 1638MeO     HA 9824   3.359   2.876   1.193
 1638MeO     HB 9825   3.354   2.843   1.367
 1638MeO     HC 9826   3.497   2.918   1.295
 1638MeO      O 9827   3.333   3.041   1.313
 1638MeO      H 9828   3.237   3.032   1.304
 1639MeO      C 9829   4.768   1.653   1.843
 1639MeO     HA 9830   4.724   1.748   1.816
 1639MeO     HB 9831   4.829   1.618   1.759
 1639MeO     HC 9832   4.833   1.668   1.929
 1639MeO      O 9833   4.667   1.559   1.874
 1639MeO      H 9834   4.621   1.592   1.952
 1640MeO      C 9835   2.225   1.603   0.059
 1640MeO     HA 9836   2.281   1.531   4.925
 1640MeO     HB 9837   2.198   1.687   4.920
 1640MeO     HC 9838   2.289   1.640   0.139
 1640MeO      O 9839   2.109   1.543   0.112
 1640MeO      H 9840   2.056   1.514   0.036
 1641MeO      C 9841   4.470   1.743   4.882
 1641MeO     HA 9842   4.544   1.815   4.915
 1641MeO     HB 9843   4.520   1.663   4.828
 1641MeO     HC 9844   4.422   1.699   0.044
 1641MeO      O 9845   4.373   1.805   4.800
 1641MeO      H 9846   4.312   1.736   4.771
 1642MeO      C 9847   4.189   0.283   0.255
 1642MeO     HA 9848   4.123   0.273   0.341
 1642MeO     HB 9849   4.271   0.211   0.265
 1642MeO     HC 9850   4.133   0.258   0.165
 1642MeO      O 9851   4.240   0.414   0.246
 1642MeO      H 9852   4.163   0.473   0.242
 1643MeO      C 9853   3.703   1.044   4.087
 1643MeO     HA 9854   3.676   1.149   4.078
 1643MeO     HB 9855   3.727   1.005   3.987
 1643MeO     HC 9856   3.792   1.037   4.149
 1643MeO      O 9857   3.597   0.971   4.144
 1643MeO      H 9858   3.585   1.005   4.233
 1644MeO      C 9859   1.025   1.742   0.617
 1644MeO     HA 9860   1.031   1.637   0.647
 1644MeO     HB 9861   0.978   1.798   0.697
 1644MeO     HC 9862   0.964   1.750   0.528
 1644MeO      O 9863   1.155   1.793   0.593
 1644MeO      H 9864   1.203   1.783   0.676
 1645MeO      C 9865   2.775   0.360   2.048
 1645MeO     HA 9866   2.740   0.270   1.997
 1645MeO     HB 9867   2.741   0.356   2.152
 1645MeO     HC 9868   2.731   0.447   2.000
 1645MeO      O 9869   2.916   0.367   2.043
 1645MeO      H 9870   2.949   0.287   2.087
 1646MeO      C 9871   3.371   0.913   2.119
 1646MeO     HA 9872   3.473   0.919   2.082
 1646MeO     HB 9873   3.307   0.974   2.056
 1646MeO     HC 9874   3.339   0.809   2.113
 1646MeO      O 9875   3.366   0.958   2.253
 1646MeO      H 9876   3.431   0.905   2.302
 1647MeO      C 9877   2.264   2.041   1.462
 1647MeO     HA 9878   2.181   2.103   1.427
 1647MeO     HB 9879   2.357   2.081   1.422
 1647MeO     HC 9880   2.268   2.048   1.571
 1647MeO      O 9881   2.246   1.907   1.422
 1647MeO      H 9882   2.322   1.858   1.455
 1648MeO      C 9883   3.603   4.182   1.585
 1648MeO     HA 9884   3.517   4.117   1.574
 1648MeO     HB 9885   3.596   4.231   1.682
 1648MeO     HC 9886   3.693   4.121   1.582
 1648MeO      O 9887   3.605   4.278   1.481
 1648MeO      H 9888   3.528   4.336   1.492
 1649MeO      C 9889   1.708   1.535   0.115
 1649MeO     HA 9890   1.700   1.454   0.043
 1649MeO     HB 9891   1.766   1.615   0.071
 1649MeO     HC 9892   1.761   1.498   0.203
 1649MeO      O 9893   1.579   1.581   0.150
 1649MeO      H 9894   1.538   1.611   0.068
 1650MeO      C 9895   0.366   3.229   1.158
 1650MeO     HA 9896   0.280   3.175   1.197
 1650MeO     HB 9897   0.397   3.184   1.064
 1650MeO     HC 9898   0.448   3.221   1.229
 1650MeO      O 9899   0.333   3.365   1.137
 1650MeO      H 9900   0.414   3.408   1.105
 1651MeO      C 9901   1.107   2.382   0.984
 1651MeO     HA 9902   1.025   2.432   0.932
 1651MeO     HB 9903   1.171   2.457   1.030
 1651MeO     HC 9904   1.064   2.319   1.062
 1651MeO      O 9905   1.179   2.301   0.893
 1651MeO      H 9906   1.114   2.241   0.854
 1652MeO      C 9907   3.068   1.217   0.374
 1652MeO     HA 9908   2.965   1.225   0.338
 1652MeO     HB 9909   3.100   1.113   0.365
 1652MeO     HC 9910   3.132   1.278   0.310
 1652MeO      O 9911   3.078   1.259   0.508
 1652MeO      H 9912   3.171   1.248   0.533
 1653MeO      C 9913   3.518   4.435   3.475
 1653MeO     HA 9914   3.561   4.505   3.404
 1653MeO     HB 9915   3.409   4.444   3.471
 1653MeO     HC 9916   3.546   4.334   3.445
 1653MeO      O 9917   3.564   4.463   3.606
 1653MeO      H 9918   3.537   4.553   3.626
 1654MeO      C 9919   0.544   3.279   4.732
 1654MeO     HA 9920   0.594   3.183   4.747
 1654MeO     HB 9921   0.495   3.277   4.635
 1654MeO     HC 9922   0.469   3.291   4.809
 1654MeO      O 9923   0.640   3.383   4.736
 1654MeO      H 9924   0.704   3.363   4.667
 1655MeO      C 9925   3.662   2.570   2.785
 1655MeO     HA 9926   3.657   2.461   2.777
 1655MeO     HB 9927   3.714   2.595   2.877
 1655MeO     HC 9928   3.560   2.608   2.791
 1655MeO      O 9929   3.729   2.625   2.674
 1655MeO      H 9930   3.725   2.721   2.684
 1656MeO      C 9931   3.851   1.107   0.272
 1656MeO     HA 9932   3.841   1.049   0.180
 1656MeO     HB 9933   3.934   1.177   0.261
 1656MeO     HC 9934   3.875   1.038   0.353
 1656MeO      O 9935   3.731   1.175   0.300
 1656MeO      H 9936   3.663   1.107   0.311
 1657MeO      C 9937   0.157   3.691   0.589
 1657MeO     HA 9938   0.257   3.656   0.616
 1657MeO     HB 9939   0.146   3.793   0.626
 1657MeO     HC 9940   0.149   3.692   0.480
 1657MeO      O 9941   0.058   3.608   0.646
 1657MeO      H 9942   0.070   3.613   0.742
 1658MeO      C 9943   3.147   0.597   2.818
 1658MeO     HA 9944   3.139   0.640   2.718
 1658MeO     HB 9945   3.229   0.525   2.819
 1658MeO     HC 9946   3.054   0.544   2.840
 1658MeO      O 9947   3.169   0.699   2.913
 1658MeO      H 9948   3.094   0.758   2.909
 1659MeO      C 9949   4.195   3.416   3.615
 1659MeO     HA 9950   4.269   3.424   3.695
 1659MeO     HB 9951   4.175   3.311   3.597
 1659MeO     HC 9952   4.103   3.464   3.648
 1659MeO      O 9953   4.244   3.478   3.498
 1659MeO      H 9954   4.324   3.430   3.472
 1660MeO      C 9955   4.391   3.995   3.139
 1660MeO     HA 9956   4.285   4.017   3.150
 1660MeO     HB 9957   4.448   4.088   3.150
 1660MeO     HC 9958   4.421   3.928   3.219
 1660MeO      O 9959   4.416   3.937   3.012
 1660MeO      H 9960   4.364   3.855   3.008
 1661MeO      C 9961   2.361   0.797   0.734
 1661MeO     HA 9962   2.294   0.757   0.810
 1661MeO     HB 9963   2.433   0.863   0.782
 1661MeO     HC 9964   2.303   0.855   0.663
 1661MeO      O 9965   2.428   0.691   0.668
 1661MeO      H 9966   2.481   0.646   0.735
 1662MeO      C 9967   3.075   0.352   1.735
 1662MeO     HA 9968   3.024   0.257   1.738
 1662MeO     HB 9969   3.168   0.343   1.791
 1662MeO     HC 9970   3.101   0.374   1.631
 1662MeO      O 9971   2.994   0.454   1.789
 1662MeO      H 9972   2.967   0.424   1.876
 1663MeO      C 9973   3.202   2.952   0.220
 1663MeO     HA 9974   3.275   2.871   0.216
 1663MeO     HB 9975   3.174   2.968   0.324
 1663MeO     HC 9976   3.249   3.042   0.182
 1663MeO      O 9977   3.089   2.919   0.142
 1663MeO      H 9978   3.121   2.899   0.054
 1664MeO      C 9979   3.681   2.689   1.750
 1664MeO     HA 9980   3.590   2.714   1.695
 1664MeO     HB 9981   3.713   2.777   1.806
 1664MeO     HC 9982   3.659   2.609   1.821
 1664MeO      O 9983   3.782   2.647   1.661
 1664MeO      H 9984   3.861   2.630   1.713
 1665MeO      C 9985   4.732   3.687   4.806
 1665MeO     HA 9986   4.828   3.738   4.815
 1665MeO     HB 9987   4.684   3.687   4.904
 1665MeO     HC 9988   4.748   3.584   4.776
 1665MeO      O 9989   4.649   3.752   4.712
 1665MeO      H 9990   4.564   3.706   4.714
 1666MeO      C 9991   3.470   1.414   4.538
 1666MeO     HA 9992   3.474   1.446   4.434
 1666MeO     HB 9993   3.508   1.494   4.601
 1666MeO     HC 9994   3.366   1.396   4.565
 1666MeO      O 9995   3.546   1.296   4.557
 1666MeO      H 9996   3.542   1.276   4.651
 1667MeO      C 9997   3.444   0.992   2.691
 1667MeO     HA 9998   3.479   0.914   2.624
 1667MeO     HB 9999   3.402   1.073   2.632
 1667MeO     HC10000   3.365   0.950   2.754
 1667MeO      O10001   3.549   1.040   2.771
 1667MeO      H10002   3.510   1.107   2.829
 1668MeO      C10003   0.194   3.296   0.580
 1668MeO     HA10004   0.120   3.275   0.502
 1668MeO     HB10005   0.143   3.344   0.664
 1668MeO     HC10006   0.267   3.365   0.540
 1668MeO      O10007   0.255   3.176   0.623
 1668MeO      H10008   0.308   3.144   0.549
 1669MeO      C10009   4.045   2.853   0.424
 1669MeO     HA10010   4.045   2.936   0.354
 1669MeO     HB10011   4.073   2.762   0.371
 1669MeO     HC10012   3.943   2.841   0.462
 1669MeO      O10013   4.135   2.878   0.530
 1669MeO      H10014   4.221   2.893   0.490
 1670MeO      C10015   1.071   0.094   0.258
 1670MeO     HA10016   1.157   0.087   0.190
 1670MeO     HB10017   1.000   0.016   0.230
 1670MeO     HC10018   1.105   0.075   0.359
 1670MeO      O10019   1.011   0.221   0.249
 1670MeO      H10020   0.936   0.222   0.309
 1671MeO      C10021   1.392   3.968   1.225
 1671MeO     HA10022   1.432   3.877   1.181
 1671MeO     HB10023   1.429   3.975   1.328
 1671MeO     HC10024   1.283   3.961   1.228
 1671MeO      O10025   1.432   4.081   1.151
 1671MeO      H10026   1.402   4.159   1.201
 1672MeO      C10027   2.715   4.783   3.545
 1672MeO     HA10028   2.705   4.871   3.609
 1672MeO     HB10029   2.618   4.734   3.539
 1672MeO     HC10030   2.745   4.815   3.446
 1672MeO      O10031   2.811   4.694   3.599
 1672MeO      H10032   2.782   4.672   3.689
 1673MeO      C10033   0.943   4.000   1.357
 1673MeO     HA10034   1.003   4.073   1.411
 1673MeO     HB10035   0.887   4.053   1.280
 1673MeO     HC10036   1.010   3.929   1.308
 1673MeO      O10037   0.855   3.933   1.445
 1673MeO      H10038   0.796   4.001   1.480
 1674MeO      C10039   4.159   0.211   2.638
 1674MeO     HA10040   4.259   0.239   2.674
 1674MeO     HB10041   4.166   0.191   2.531
 1674MeO     HC10042   4.093   0.297   2.652
 1674MeO      O10043   4.111   0.099   2.707
 1674MeO      H10044   4.104   0.124   2.800
 1675MeO      C10045   3.619   3.830   1.837
 1675MeO     HA10046   3.548   3.771   1.779
 1675MeO     HB10047   3.668   3.764   1.908
 1675MeO     HC10048   3.562   3.905   1.893
 1675MeO      O10049   3.713   3.892   1.753
 1675MeO      H10050   3.758   3.823   1.705
 1676MeO      C10051   3.654   2.531   3.243
 1676MeO     HA10052   3.618   2.592   3.324
 1676MeO     HB10053   3.647   2.426   3.273
 1676MeO     HC10054   3.591   2.547   3.156
 1676MeO      O10055   3.788   2.564   3.213
 1676MeO      H10056   3.838   2.557   3.296
 1677MeO      C10057   4.786   2.511   4.823
 1677MeO     HA10058   4.803   2.597   4.888
 1677MeO     HB10059   4.848   2.520   4.735
 1677MeO     HC10060   4.681   2.513   4.792
 1677MeO      O10061   4.814   2.392   4.893
 1677MeO      H10062   4.751   2.387   0.040
 1678MeO      C10063   4.909   3.349   1.156
 1678MeO     HA10064   4.806   3.384   1.150
 1678MeO     HB10065   4.924   3.272   1.080
 1678MeO     HC10066   4.925   3.304   1.254
 1678MeO      O10067   0.075   3.455   1.136
 1678MeO      H10068   0.164   3.417   1.142
 1679MeO      C10069   1.365   1.499   4.522
 1679MeO     HA10070   1.379   1.412   4.458
 1679MeO     HB10071   1.437   1.575   4.492
 1679MeO     HC10072   1.265   1.537   4.507
 1679MeO      O10073   1.384   1.463   4.657
 1679MeO      H10074   1.316   1.397   4.677
 1680MeO      C10075   3.547   0.979   3.154
 1680MeO     HA10076   3.613   0.946   3.233
 1680MeO     HB10077   3.603   0.980   3.060
 1680MeO     HC10078   3.464   0.909   3.145
 1680MeO      O10079   3.498   1.109   3.182
 1680MeO      H10080   3.574   1.167   3.189
 1681MeO      C10081   1.254   1.574   1.896
 1681MeO     HA10082   1.187   1.559   1.811
 1681MeO     HB10083   1.195   1.576   1.987
 1681MeO     HC10084   1.303   1.671   1.884
 1681MeO      O10085   1.350   1.471   1.901
 1681MeO      H10086   1.303   1.388   1.910
 1682MeO      C10087   3.989   4.200   1.956
 1682MeO     HA10088   3.976   4.147   2.050
 1682MeO     HB10089   3.973   4.307   1.973
 1682MeO     HC10090   3.914   4.165   1.886
 1682MeO      O10091   4.119   4.178   1.905
 1682MeO      H10092   4.181   4.215   1.969
 1683MeO      C10093   4.391   4.923   2.956
 1683MeO     HA10094   4.438   0.093   2.934
 1683MeO     HB10095   4.469   4.847   2.965
 1683MeO     HC10096   4.327   4.896   2.871
 1683MeO      O10097   4.314   0.005   3.074
 1683MeO      H10098   4.271   4.845   3.085
 1684MeO      C10099   2.007   0.956   0.605
 1684MeO     HA10100   1.967   1.050   0.568
 1684MeO     HB10101   2.041   0.897   0.520
 1684MeO     HC10102   2.093   0.977   0.669
 1684MeO      O10103   1.909   0.885   0.678
 1684MeO      H10104   1.949   0.801   0.706
 1685MeO      C10105   2.683   3.423   4.652
 1685MeO     HA10106   2.709   3.518   4.607
 1685MeO     HB10107   2.688   3.433   4.761
 1685MeO     HC10108   2.580   3.399   4.625
 1685MeO      O10109   2.770   3.321   4.609
 1685MeO      H10110   2.746   3.242   4.658
 1686MeO      C10111   1.999   4.162   2.286
 1686MeO     HA10112   2.088   4.151   2.224
 1686MeO     HB10113   2.026   4.216   2.377
 1686MeO     HC10114   1.963   4.063   2.314
 1686MeO      O10115   1.900   4.232   2.214
 1686MeO      H10116   1.874   4.176   2.140
 1687MeO      C10117   2.460   1.629   1.480
 1687MeO     HA10118   2.372   1.605   1.421
 1687MeO     HB10119   2.457   1.572   1.573
 1687MeO     HC10120   2.549   1.600   1.425
 1687MeO      O10121   2.464   1.768   1.509
 1687MeO      H10122   2.544   1.783   1.562
 1688MeO      C10123   2.892   2.229   4.525
 1688MeO     HA10124   2.976   2.229   4.594
 1688MeO     HB10125   2.851   2.330   4.521
 1688MeO     HC10126   2.815   2.161   4.563
 1688MeO      O10127   2.934   2.188   4.396
 1688MeO      H10128   2.999   2.254   4.368
 1689MeO      C10129   0.525   1.085   1.525
 1689MeO     HA10130   0.588   1.076   1.613
 1689MeO     HB10131   0.435   1.139   1.551
 1689MeO     HC10132   0.496   0.984   1.493
 1689MeO      O10133   0.595   1.150   1.421
 1689MeO      H10134   0.675   1.100   1.404
 1690MeO      C10135   2.749   0.484   0.595
 1690MeO     HA10136   2.841   0.540   0.581
 1690MeO     HB10137   2.664   0.553   0.587
 1690MeO     HC10138   2.749   0.441   0.695
 1690MeO      O10139   2.736   0.382   0.498
 1690MeO      H10140   2.654   0.336   0.517
 1691MeO      C10141   1.934   2.906   2.062
 1691MeO     HA10142   1.846   2.970   2.055
 1691MeO     HB10143   1.976   2.917   2.162
 1691MeO     HC10144   2.008   2.939   1.989
 1691MeO      O10145   1.898   2.772   2.039
 1691MeO      H10146   1.828   2.750   2.101
 1692MeO      C10147   0.690   2.458   4.321
 1692MeO     HA10148   0.778   2.516   4.292
 1692MeO     HB10149   0.722   2.372   4.379
 1692MeO     HC10150   0.641   2.422   4.230
 1692MeO      O10151   0.601   2.537   4.396
 1692MeO      H10152   0.526   2.481   4.419
 1693MeO      C10153   4.138   4.040   4.008
 1693MeO     HA10154   4.135   3.934   3.987
 1693MeO     HB10155   4.043   4.085   3.981
 1693MeO     HC10156   4.216   4.085   3.947
 1693MeO      O10157   4.166   4.061   4.145
 1693MeO      H10158   4.254   4.024   4.161
 1694MeO      C10159   3.622   3.539   4.396
 1694MeO     HA10160   3.597   3.435   4.378
 1694MeO     HB10161   3.675   3.578   4.310
 1694MeO     HC10162   3.688   3.545   4.483
 1694MeO      O10163   3.505   3.615   4.419
 1694MeO      H10164   3.533   3.706   4.436
 1695MeO      C10165   4.502   0.504   2.864
 1695MeO     HA10166   4.486   0.612   2.860
 1695MeO     HB10167   4.429   0.456   2.798
 1695MeO     HC10168   4.485   0.470   2.966
 1695MeO      O10169   4.633   0.472   2.823
 1695MeO      H10170   4.693   0.516   2.885
 1696MeO      C10171   1.163   0.113   0.683
 1696MeO     HA10172   1.173   0.007   0.707
 1696MeO     HB10173   1.249   0.143   0.623
 1696MeO     HC10174   1.073   0.127   0.623
 1696MeO      O10175   1.156   0.191   0.800
 1696MeO      H10176   1.143   0.282   0.772
 1697MeO      C10177   4.360   4.296   2.880
 1697MeO     HA10178   4.336   4.227   2.961
 1697MeO     HB10179   4.318   4.255   2.788
 1697MeO     HC10180   4.312   4.391   2.901
 1697MeO      O10181   4.500   4.311   2.868
 1697MeO      H10182   4.537   4.222   2.861
 1698MeO      C10183   4.907   4.857   0.178
 1698MeO     HA10184   4.876   4.761   0.219
 1698MeO     HB10185   0.090   4.861   0.177
 1698MeO     HC10186   4.870   4.864   0.075
 1698MeO      O10187   4.855   0.037   0.257
 1698MeO      H10188   4.891   0.025   0.346
 1699MeO      C10189   4.185   2.071   4.813
 1699MeO     HA10190   4.282   2.066   4.863
 1699MeO     HB10191   4.143   1.971   4.809
 1699MeO     HC10192   4.200   2.107   4.711
 1699MeO      O10193   4.099   2.157   4.884
 1699MeO      H10194   4.088   2.120   0.047
 1700MeO      C10195   2.957   3.276   0.739
 1700MeO     HA10196   2.850   3.279   0.716
 1700MeO     HB10197   3.004   3.366   0.700
 1700MeO     HC10198   3.001   3.190   0.689
 1700MeO      O10199   2.977   3.267   0.879
 1700MeO      H10200   2.920   3.333   0.919
 1701MeO      C10201   4.915   3.976   3.914
 1701MeO     HA10202   4.819   3.972   3.863
 1701MeO     HB10203   4.909   3.913   4.003
 1701MeO     HC10204   0.008   4.079   3.945
 1701MeO      O10205   0.092   3.930   3.828
 1701MeO      H10206   0.080   3.835   3.817
 1702MeO      C10207   2.841   3.482   1.121
 1702MeO     HA10208   2.871   3.391   1.172
 1702MeO     HB10209   2.926   3.550   1.119
 1702MeO     HC10210   2.761   3.528   1.178
 1702MeO      O10211   2.797   3.453   0.990
 1702MeO      H10212   2.721   3.394   0.999
 1703MeO      C10213   1.305   3.048   2.702
 1703MeO     HA10214   1.266   3.059   2.601
 1703MeO     HB10215   1.277   3.136   2.761
 1703MeO     HC10216   1.258   2.960   2.747
 1703MeO      O10217   1.446   3.035   2.699
 1703MeO      H10218   1.480   3.117   2.661
 1704MeO      C10219   0.395   0.608   2.188
 1704MeO     HA10220   0.332   0.644   2.106
 1704MeO     HB10221   0.345   0.629   2.282
 1704MeO     HC10222   0.489   0.662   2.186
 1704MeO      O10223   0.418   0.469   2.175
 1704MeO      H10224   0.475   0.443   2.249
 1705MeO      C10225   1.232   1.084   3.706
 1705MeO     HA10226   1.250   1.180   3.658
 1705MeO     HB10227   1.320   1.021   3.690
 1705MeO     HC10228   1.147   1.036   3.658
 1705MeO      O10229   1.209   1.101   3.844
 1705MeO      H10230   1.290   1.139   3.880
 1706MeO      C10231   3.270   1.557   1.346
 1706MeO     HA10232   3.364   1.588   1.393
 1706MeO     HB10233   3.286   1.463   1.295
 1706MeO     HC10234   3.242   1.632   1.272
 1706MeO      O10235   3.168   1.544   1.442
 1706MeO      H10236   3.089   1.515   1.394
 1707MeO      C10237   3.601   2.444   0.069
 1707MeO     HA10238   3.613   2.487   0.168
 1707MeO     HB10239   3.551   2.517   0.005
 1707MeO     HC10240   3.537   2.356   0.077
 1707MeO      O10241   3.727   2.410   0.015
 1707MeO      H10242   3.768   2.349   0.077
 1708MeO      C10243   0.732   3.294   4.424
 1708MeO     HA10244   0.645   3.359   4.435
 1708MeO     HB10245   0.696   3.192   4.406
 1708MeO     HC10246   0.788   3.327   4.336
 1708MeO      O10247   0.813   3.298   4.539
 1708MeO      H10248   0.888   3.240   4.522
 1709MeO      C10249   3.809   2.032   1.558
 1709MeO     HA10250   3.865   2.085   1.635
 1709MeO     HB10251   3.879   1.977   1.496
 1709MeO     HC10252   3.758   2.106   1.496
 1709MeO      O10253   3.715   1.945   1.617
 1709MeO      H10254   3.654   2.001   1.667
 1710MeO      C10255   1.535   2.889   0.579
 1710MeO     HA10256   1.534   2.780   0.580
 1710MeO     HB10257   1.542   2.922   0.475
 1710MeO     HC10258   1.622   2.924   0.633
 1710MeO      O10259   1.417   2.940   0.639
 1710MeO      H10260   1.422   3.036   0.631
 1711MeO      C10261   4.037   0.262   2.237
 1711MeO     HA10262   3.984   0.354   2.211
 1711MeO     HB10263   3.989   0.178   2.187
 1711MeO     HC10264   4.030   0.248   2.344
 1711MeO      O10265   4.173   0.270   2.197
 1711MeO      H10266   4.212   0.184   2.216
 1712MeO      C10267   0.833   3.887   4.173
 1712MeO     HA10268   0.854   3.813   4.095
 1712MeO     HB10269   0.754   3.953   4.137
 1712MeO     HC10270   0.922   3.946   4.190
 1712MeO      O10271   0.792   3.821   4.291
 1712MeO      H10272   0.711   3.775   4.270
 1713MeO      C10273   3.825   1.166   2.062
 1713MeO     HA10274   3.761   1.092   2.014
 1713MeO     HB10275   3.820   1.151   2.169
 1713MeO     HC10276   3.927   1.151   2.029
 1713MeO      O10277   3.782   1.297   2.028
 1713MeO      H10278   3.788   1.303   1.932
 1714MeO      C10279   0.333   0.783   3.113
 1714MeO     HA10280   0.431   0.826   3.094
 1714MeO     HB10281   0.310   0.796   3.219
 1714MeO     HC10282   0.259   0.839   3.055
 1714MeO      O10283   0.330   0.647   3.078
 1714MeO      H10284   0.346   0.642   2.983
 1715MeO      C10285   2.922   2.540   0.740
 1715MeO     HA10286   2.992   2.458   0.721
 1715MeO     HB10287   2.836   2.501   0.793
 1715MeO     HC10288   2.889   2.579   0.643
 1715MeO      O10289   2.984   2.643   0.815
 1715MeO      H10290   2.917   2.711   0.829
 1716MeO      C10291   3.004   2.183   4.007
 1716MeO     HA10292   2.970   2.197   4.109
 1716MeO     HB10293   3.041   2.081   3.996
 1716MeO     HC10294   3.086   2.252   3.988
 1716MeO      O10295   2.898   2.207   3.916
 1716MeO      H10296   2.829   2.144   3.938
 1717MeO      C10297   3.102   4.633   2.863
 1717MeO     HA10298   3.096   4.719   2.797
 1717MeO     HB10299   3.064   4.546   2.810
 1717MeO     HC10300   3.206   4.615   2.889
 1717MeO      O10301   3.027   4.655   2.981
 1717MeO      H10302   3.032   4.575   3.033
 1718MeO      C10303   3.348   2.390   2.114
 1718MeO     HA10304   3.307   2.460   2.187
 1718MeO     HB10305   3.447   2.424   2.085
 1718MeO     HC10306   3.356   2.292   2.161
 1718MeO      O10307   3.263   2.382   2.001
 1718MeO      H10308   3.175   2.361   2.035
 1719MeO      C10309   2.734   1.652   3.145
 1719MeO     HA10310   2.803   1.621   3.067
 1719MeO     HB10311   2.763   1.604   3.239
 1719MeO     HC10312   2.743   1.760   3.158
 1719MeO      O10313   2.602   1.616   3.110
 1719MeO      H10314   2.598   1.520   3.108
 1720MeO      C10315   4.011   3.071   2.137
 1720MeO     HA10316   4.105   3.126   2.127
 1720MeO     HB10317   4.027   2.969   2.104
 1720MeO     HC10318   3.936   3.118   2.073
 1720MeO      O10319   3.969   3.073   2.272
 1720MeO      H10320   3.958   3.165   2.297
 1721MeO      C10321   2.785   4.324   2.419
 1721MeO     HA10322   2.890   4.348   2.435
 1721MeO     HB10323   2.733   4.327   2.515
 1721MeO     HC10324   2.779   4.223   2.380
 1721MeO      O10325   2.727   4.415   2.328
 1721MeO      H10326   2.781   4.411   2.248
 1722MeO      C10327   4.527   2.882   0.720
 1722MeO     HA10328   4.419   2.892   0.712
 1722MeO     HB10329   4.551   2.811   0.799
 1722MeO     HC10330   4.569   2.979   0.748
 1722MeO      O10331   4.583   2.840   0.597
 1722MeO      H10332   4.678   2.833   0.613
 1723MeO      C10333   0.732   4.741   1.422
 1723MeO     HA10334   0.829   4.791   1.414
 1723MeO     HB10335   0.657   4.805   1.375
 1723MeO     HC10336   0.707   4.729   1.527
 1723MeO      O10337   0.736   4.615   1.357
 1723MeO      H10338   0.737   4.634   1.262
 1724MeO      C10339   1.459   1.247   4.061
 1724MeO     HA10340   1.504   1.172   4.127
 1724MeO     HB10341   1.520   1.337   4.066
 1724MeO     HC10342   1.359   1.270   4.098
 1724MeO      O10343   1.454   1.199   3.929
 1724MeO      H10344   1.544   1.176   3.904
 1725MeO      C10345   3.272   2.272   0.360
 1725MeO     HA10346   3.268   2.377   0.387
 1725MeO     HB10347   3.204   2.254   0.276
 1725MeO     HC10348   3.239   2.213   0.445
 1725MeO      O10349   3.404   2.236   0.323
 1725MeO      H10350   3.461   2.254   0.399
 1726MeO      C10351   2.084   2.392   3.948
 1726MeO     HA10352   2.112   2.376   3.844
 1726MeO     HB10353   2.164   2.448   3.997
 1726MeO     HC10354   1.993   2.453   3.951
 1726MeO      O10355   2.063   2.269   4.014
 1726MeO      H10356   2.034   2.290   4.103
 1727MeO      C10357   2.396   0.558   3.574
 1727MeO     HA10358   2.338   0.505   3.650
 1727MeO     HB10359   2.357   0.660   3.566
 1727MeO     HC10360   2.500   0.563   3.607
 1727MeO      O10361   2.386   0.490   3.451
 1727MeO      H10362   2.407   0.398   3.470
 1728MeO      C10363   3.992   1.800   0.455
 1728MeO     HA10364   4.100   1.817   0.451
 1728MeO     HB10365   3.954   1.838   0.550
 1728MeO     HC10366   3.975   1.692   0.451
 1728MeO      O10367   3.927   1.864   0.347
 1728MeO      H10368   3.832   1.849   0.360
   4.92560   4.92560   4.92560
